 &FCI NORB= 5,NELEC= 6,ORBSYM= 1, 1, 1, 1, 1, 
 ISYM= 0 ,
 TREL=.FALSE.
 &END
    1.03127801051108   1   1   1   1
  0.0547112983892008   3   1   1   1
    1.04949371641887   2   2   1   1
  0.0547112983892008   1   3   1   1
   0.323788098494339   3   3   1   1
   0.334433109510991   4   4   1   1
   0.334433109513709   5   5   1   1
   0.569194822817726   2   1   2   1
   0.569194822817726   1   2   2   1
  0.0589842522637321   3   2   2   1
  0.0589842522637326   2   3   2   1
  0.0547112983892008   1   1   3   1
 0.00527628374679003   3   1   3   1
  0.0572033807489355   2   2   3   1
 0.00527628374679002   1   3   3   1
 0.00106121442450911   3   3   3   1
 0.00125531311926956   4   4   3   1
 0.00125531311926475   5   5   3   1
 0.00131895201714583   4   1   4   1
-0.00839666090263005   4   3   4   1
 0.00131895201714583   1   4   4   1
-0.00839666090263005   3   4   4   1
 0.00131895201719873   5   1   5   1
-0.00839666090283895   5   3   5   1
 0.00131895201719873   1   5   5   1
-0.00839666090283895   3   5   5   1
   0.569194822817726   2   1   1   2
   0.569194822817725   1   2   1   2
   0.058984252263732   3   2   1   2
  0.0589842522637325   2   3   1   2
    1.04949371641887   1   1   2   2
  0.0572033807489355   3   1   2   2
    1.06939870011517   2   2   2   2
  0.0572033807489354   1   3   2   2
   0.322531890921792   3   3   2   2
   0.332574307311174   4   4   2   2
   0.332574307313839   5   5   2   2
  0.0589842522637321   2   1   3   2
   0.058984252263732   1   2   3   2
 0.00754317009791743   3   2   3   2
 0.00754317009791755   2   3   3   2
0.000467093338979689   4   2   4   2
0.000467093338979693   2   4   4   2
0.000467093338989064   5   2   5   2
0.000467093338989063   2   5   5   2
  0.0547112983892008   1   1   1   3
 0.00527628374679002   3   1   1   3
  0.0572033807489354   2   2   1   3
 0.00527628374679002   1   3   1   3
 0.00106121442450912   3   3   1   3
 0.00125531311926957   4   4   1   3
 0.00125531311926476   5   5   1   3
  0.0589842522637326   2   1   2   3
  0.0589842522637325   1   2   2   3
 0.00754317009791755   3   2   2   3
 0.00754317009791766   2   3   2   3
   0.323788098494339   1   1   3   3
 0.00106121442450911   3   1   3   3
   0.322531890921792   2   2   3   3
 0.00106121442450912   1   3   3   3
   0.256248095716522   3   3   3   3
   0.261007854312433   4   4   3   3
   0.261007854313711   5   5   3   3
-0.00839666090263005   4   1   4   3
  0.0598135909228244   4   3   4   3
-0.00839666090263005   1   4   4   3
  0.0598135909228245   3   4   4   3
-0.00839666090283895   5   1   5   3
  0.0598135909230792   5   3   5   3
-0.00839666090283895   1   5   5   3
  0.0598135909230792   3   5   5   3
 0.00131895201714583   4   1   1   4
-0.00839666090263005   4   3   1   4
 0.00131895201714583   1   4   1   4
-0.00839666090263005   3   4   1   4
0.000467093338979693   4   2   2   4
0.000467093338979698   2   4   2   4
-0.00839666090263005   4   1   3   4
  0.0598135909228245   4   3   3   4
-0.00839666090263005   1   4   3   4
  0.0598135909228245   3   4   3   4
   0.334433109510991   1   1   4   4
 0.00125531311926956   3   1   4   4
   0.332574307311174   2   2   4   4
 0.00125531311926957   1   3   4   4
   0.261007854312433   3   3   4   4
   0.282354506131672   4   4   4   4
   0.254943569001004   5   5   4   4
  0.0137054685660461   5   4   5   4
  0.0137054685660461   4   5   5   4
 0.00131895201719873   5   1   1   5
-0.00839666090283895   5   3   1   5
 0.00131895201719874   1   5   1   5
-0.00839666090283895   3   5   1   5
0.000467093338989063   5   2   2   5
0.000467093338989063   2   5   2   5
-0.00839666090283895   5   1   3   5
  0.0598135909230792   5   3   3   5
-0.00839666090283895   1   5   3   5
  0.0598135909230792   3   5   3   5
  0.0137054685660461   5   4   4   5
  0.0137054685660461   4   5   4   5
   0.334433109513709   1   1   5   5
 0.00125531311926475   3   1   5   5
   0.332574307313839   2   2   5   5
 0.00125531311926476   1   3   5   5
   0.261007854313711   3   3   5   5
   0.254943569001004   4   4   5   5
   0.282354506134519   5   5   5   5
-6.15435322846455   1   1   0   0
-0.112573940627741   3   1   0   0
-5.94332919675288   2   2   0   0
-0.112573940627741   1   3   0   0
-1.76095450764984   3   3   0   0
-1.76063425101805   4   4   0   0
-1.7606342510295   5   5   0   0
4.76259489603   0   0   0   0
