 &FCI NORB= 5,NELEC= 6,ORBSYM= 1, 1, 1, 1, 1, 
 ISYM= 0 ,
 TREL=.FALSE.
 &END
    1.03132200883308   1   1   1   1
  0.0540976864185343   3   1   1   1
    1.04959381788845   2   2   1   1
  0.0540976864185343   1   3   1   1
   0.321375328862964   3   3   1   1
   0.328074896906604   4   4   1   1
   0.328074896964105   5   5   1   1
    0.56926561937557   2   1   2   1
   0.569265619375573   1   2   2   1
  0.0580665067007115   3   2   2   1
   0.058066506700712   2   3   2   1
  0.0540976864185343   1   1   3   1
 0.00514937767003727   3   1   3   1
  0.0565594732232522   2   2   3   1
 0.00514937767003727   1   3   3   1
 0.00103033906212784   3   3   3   1
 0.00117617190470023   4   4   3   1
 0.00117617190480549   5   5   3   1
 0.00124642035508598   4   1   4   1
-0.00802002711131121   4   3   4   1
5.06932870072253e-09   5   3   4   1
 0.00124642035508598   1   4   4   1
-0.00802002711131121   3   4   4   1
5.06932869954565e-09   3   5   4   1
 0.00124642035597886   5   1   5   1
-5.06932509886458e-09   4   3   5   1
 -0.0080200271152613   5   3   5   1
-5.06932509918563e-09   3   4   5   1
 0.00124642035597886   1   5   5   1
 -0.0080200271152613   3   5   5   1
   0.569265619375573   2   1   1   2
   0.569265619375576   1   2   1   2
  0.0580665067007121   3   2   1   2
  0.0580665067007126   2   3   1   2
    1.04959381788845   1   1   2   2
  0.0565594732232522   3   1   2   2
    1.06956060787138   2   2   2   2
  0.0565594732232522   1   3   2   2
   0.320187823590496   3   3   2   2
   0.326282061942043   4   4   2   2
   0.326282061998529   5   5   2   2
  0.0580665067007115   2   1   3   2
  0.0580665067007121   1   2   3   2
  0.0073617593326935   3   2   3   2
 0.00736175933269361   2   3   3   2
0.000439635558202063   4   2   4   2
0.000439635558202058   2   4   4   2
0.000439635558392418   5   2   5   2
0.000439635558392416   2   5   5   2
  0.0540976864185343   1   1   1   3
 0.00514937767003727   3   1   1   3
  0.0565594732232522   2   2   1   3
 0.00514937767003727   1   3   1   3
 0.00103033906212785   3   3   1   3
 0.00117617190470024   4   4   1   3
  0.0011761719048055   5   5   1   3
   0.058066506700712   2   1   2   3
  0.0580665067007126   1   2   2   3
 0.00736175933269361   3   2   2   3
 0.00736175933269372   2   3   2   3
   0.321375328862964   1   1   3   3
 0.00103033906212784   3   1   3   3
   0.320187823590496   2   2   3   3
 0.00103033906212785   1   3   3   3
    0.25365413814914   3   3   3   3
   0.256405965936363   4   4   3   3
   0.256405965965799   5   5   3   3
-0.00802002711131121   4   1   4   3
-5.06932509886458e-09   5   1   4   3
  0.0582819246429129   4   3   4   3
-0.00802002711131121   1   4   4   3
  0.0582819246429129   3   4   4   3
-5.06932510292101e-09   1   5   4   3
5.06932870072253e-09   4   1   5   3
 -0.0080200271152613   5   1   5   3
   0.058281924652752   5   3   5   3
5.06932870143886e-09   1   4   5   3
-0.00802002711526129   1   5   5   3
   0.058281924652752   3   5   5   3
 0.00124642035508598   4   1   1   4
-0.00802002711131121   4   3   1   4
5.06932870143886e-09   5   3   1   4
 0.00124642035508598   1   4   1   4
-0.00802002711131121   3   4   1   4
5.06932870026198e-09   3   5   1   4
0.000439635558202058   4   2   2   4
0.000439635558202053   2   4   2   4
-0.00802002711131121   4   1   3   4
-5.06932509918563e-09   5   1   3   4
  0.0582819246429129   4   3   3   4
-0.00802002711131121   1   4   3   4
  0.0582819246429129   3   4   3   4
-5.06932510324206e-09   1   5   3   4
   0.328074896906604   1   1   4   4
 0.00117617190470023   3   1   4   4
   0.326282061942043   2   2   4   4
 0.00117617190470024   1   3   4   4
   0.256405965936363   3   3   4   4
   0.276188623110024   4   4   4   4
   0.248833039017025   5   5   4   4
  0.0136777920618655   5   4   5   4
  0.0136777920618655   4   5   5   4
 0.00124642035597886   5   1   1   5
-5.06932510292101e-09   4   3   1   5
-0.00802002711526129   5   3   1   5
-5.06932510324206e-09   3   4   1   5
 0.00124642035597886   1   5   1   5
 -0.0080200271152613   3   5   1   5
0.000439635558392416   5   2   2   5
0.000439635558392414   2   5   2   5
5.06932869954565e-09   4   1   3   5
 -0.0080200271152613   5   1   3   5
   0.058281924652752   5   3   3   5
5.06932870026198e-09   1   4   3   5
 -0.0080200271152613   1   5   3   5
   0.058281924652752   3   5   3   5
  0.0136777920618655   5   4   4   5
  0.0136777920618655   4   5   4   5
   0.328074896964105   1   1   5   5
 0.00117617190480549   3   1   5   5
   0.326282061998529   2   2   5   5
  0.0011761719048055   1   3   5   5
   0.256405965965799   3   3   5   5
   0.248833039017025   4   4   5   5
   0.276188623171488   5   5   5   5
-6.15441860596266   1   1   0   0
-0.110820151480468   3   1   0   0
-5.9435029704012   2   2   0   0
-0.110820151480468   1   3   0   0
-1.7509678666972   3   3   0   0
-1.73335634235283   4   4   0   0
-1.73335634260078   5   5   0   0
4.76259489603   0   0   0   0
