 &FCI NORB= 5,NELEC= 6,ORBSYM= 1, 1, 1, 1, 1, 
 ISYM= 0 ,
 TREL=.FALSE.
 &END
     1.0313220092693   1   1   1   1
   0.054097686786558   3   1   1   1
    1.04959381802005   2   2   1   1
  0.0540976867865581   1   3   1   1
   0.321375329164239   3   3   1   1
   0.328074896078826   4   4   1   1
   0.328074896136381   5   5   1   1
   0.569265619792232   2   1   2   1
   0.569265619792231   1   2   2   1
  0.0580665073850197   3   2   2   1
  0.0580665073850197   2   3   2   1
   0.054097686786558   1   1   3   1
 0.00514937774182316   3   1   3   1
  0.0565594735761499   2   2   3   1
 0.00514937774182317   1   3   3   1
   0.001030339113321   3   3   3   1
 0.00117617191320264   4   4   3   1
 0.00117617191330847   5   5   3   1
 0.00124642033472488   4   1   4   1
-0.00802002705995914   4   3   4   1
-8.38953867362575e-09   5   3   4   1
 0.00124642033472488   1   4   4   1
-0.00802002705995915   3   4   4   1
-8.38953867840404e-09   3   5   4   1
 0.00124642033561832   5   1   5   1
8.38953499084188e-09   4   3   5   1
 -0.0080200270639116   5   3   5   1
8.38953498886251e-09   3   4   5   1
 0.00124642033561832   1   5   5   1
 -0.0080200270639116   3   5   5   1
   0.569265619792231   2   1   1   2
    0.56926561979223   1   2   1   2
  0.0580665073850195   3   2   1   2
  0.0580665073850195   2   3   1   2
    1.04959381802005   1   1   2   2
  0.0565594735761499   3   1   2   2
     1.0695606076548   2   2   2   2
  0.0565594735761499   1   3   2   2
   0.320187823893717   3   3   2   2
   0.326282061145975   4   4   2   2
   0.326282061202514   5   5   2   2
  0.0580665073850197   2   1   3   2
  0.0580665073850195   1   2   3   2
 0.00736175946965776   3   2   3   2
 0.00736175946965776   2   3   3   2
 0.00043963555703359   4   2   4   2
0.000439635557033586   2   4   4   2
0.000439635557224165   5   2   5   2
0.000439635557224163   2   5   5   2
  0.0540976867865581   1   1   1   3
 0.00514937774182317   3   1   1   3
  0.0565594735761499   2   2   1   3
 0.00514937774182318   1   3   1   3
   0.001030339113321   3   3   1   3
 0.00117617191320263   4   4   1   3
 0.00117617191330847   5   5   1   3
  0.0580665073850197   2   1   2   3
  0.0580665073850195   1   2   2   3
 0.00736175946965776   3   2   2   3
 0.00736175946965777   2   3   2   3
   0.321375329164239   1   1   3   3
   0.001030339113321   3   1   3   3
   0.320187823893717   2   2   3   3
   0.001030339113321   1   3   3   3
   0.253654138039619   3   3   3   3
   0.256405965602348   4   4   3   3
   0.256405965631812   5   5   3   3
-0.00802002705995914   4   1   4   3
8.38953499084188e-09   5   1   4   3
  0.0582819248273174   4   3   4   3
-0.00802002705995913   1   4   4   3
  0.0582819248273175   3   4   4   3
8.38953499139847e-09   1   5   4   3
-8.38953867362575e-09   4   1   5   3
 -0.0080200270639116   5   1   5   3
   0.058281924837163   5   3   5   3
-8.38953867679702e-09   1   4   5   3
 -0.0080200270639116   1   5   5   3
  0.0582819248371629   3   5   5   3
 0.00124642033472488   4   1   1   4
-0.00802002705995913   4   3   1   4
-8.38953867679702e-09   5   3   1   4
 0.00124642033472488   1   4   1   4
-0.00802002705995915   3   4   1   4
-8.38953868157532e-09   3   5   1   4
0.000439635557033586   4   2   2   4
0.000439635557033583   2   4   2   4
-0.00802002705995915   4   1   3   4
8.38953498886251e-09   5   1   3   4
  0.0582819248273175   4   3   3   4
-0.00802002705995915   1   4   3   4
  0.0582819248273176   3   4   3   4
 8.3895349894733e-09   1   5   3   4
   0.328074896078826   1   1   4   4
 0.00117617191320264   3   1   4   4
   0.326282061145975   2   2   4   4
 0.00117617191320263   1   3   4   4
   0.256405965602348   3   3   4   4
   0.276188622188365   4   4   4   4
   0.248833038180031   5   5   4   4
  0.0136777920195463   5   4   5   4
  0.0136777920195463   4   5   5   4
 0.00124642033561832   5   1   1   5
8.38953499139847e-09   4   3   1   5
 -0.0080200270639116   5   3   1   5
 8.3895349894733e-09   3   4   1   5
 0.00124642033561832   1   5   1   5
 -0.0080200270639116   3   5   1   5
0.000439635557224163   5   2   2   5
0.000439635557224161   2   5   2   5
-8.38953867840404e-09   4   1   3   5
 -0.0080200270639116   5   1   3   5
  0.0582819248371629   5   3   3   5
-8.38953868157532e-09   1   4   3   5
 -0.0080200270639116   1   5   3   5
  0.0582819248371629   3   5   3   5
  0.0136777920195463   5   4   4   5
  0.0136777920195463   4   5   4   5
   0.328074896136381   1   1   5   5
 0.00117617191330847   3   1   5   5
   0.326282061202514   2   2   5   5
 0.00117617191330847   1   3   5   5
   0.256405965631812   3   3   5   5
   0.248833038180031   4   4   5   5
   0.276188622249882   5   5   5   5
-6.15441860612048   1   1   0   0
-0.110820151913139   3   1   0   0
-5.94350297015518   2   2   0   0
-0.110820151913139   1   3   0   0
-1.7509678675548   3   3   0   0
-1.73335633889808   4   4   0   0
-1.73335633914626   5   5   0   0
4.76259489603   0   0   0   0
