 &FCI NORB= 5,NELEC= 6,ORBSYM= 1, 1, 1, 1, 1, 
 ISYM= 0 ,
 TREL=.FALSE.
 &END
    1.03127801051755   1   1   1   1
  0.0547112983778014   3   1   1   1
    1.04949371642553   2   2   1   1
  0.0547112983778014   1   3   1   1
   0.323788098450669   3   3   1   1
   0.334433109637471   4   4   1   1
   0.334433109639991   5   5   1   1
   0.569194822825324   2   1   2   1
   0.569194822825322   1   2   2   1
  0.0589842522363329   3   2   2   1
  0.0589842522363331   2   3   2   1
  0.0547112983778014   1   1   3   1
 0.00527628374396501   3   1   3   1
  0.0572033807365043   2   2   3   1
 0.00527628374396501   1   3   3   1
 0.00106121442473452   3   3   3   1
  0.0012553131217791   4   4   3   1
 0.00125531312176855   5   5   3   1
 0.00131895201801898   4   1   4   1
-0.00839666090280773   4   3   4   1
 0.00131895201801898   1   4   4   1
-0.00839666090280773   3   4   4   1
 0.00131895201807191   5   1   5   1
-0.00839666090301607   5   3   5   1
 0.00131895201807191   1   5   5   1
-0.00839666090301606   3   5   5   1
   0.569194822825322   2   1   1   2
    0.56919482282532   1   2   1   2
  0.0589842522363325   3   2   1   2
  0.0589842522363327   2   3   1   2
    1.04949371642553   1   1   2   2
  0.0572033807365043   3   1   2   2
    1.06939870012192   2   2   2   2
  0.0572033807365043   1   3   2   2
   0.322531890880944   3   3   2   2
   0.332574307434869   4   4   2   2
    0.33257430743734   5   5   2   2
  0.0589842522363329   2   1   3   2
  0.0589842522363325   1   2   3   2
 0.00754317009386936   3   2   3   2
  0.0075431700938694   2   3   3   2
0.000467093339317198   4   2   4   2
0.000467093339317194   2   4   4   2
0.000467093339325751   5   2   5   2
0.000467093339325747   2   5   5   2
  0.0547112983778014   1   1   1   3
 0.00527628374396501   3   1   1   3
  0.0572033807365043   2   2   1   3
 0.00527628374396501   1   3   1   3
 0.00106121442473451   3   3   1   3
 0.00125531312177909   4   4   1   3
 0.00125531312176854   5   5   1   3
  0.0589842522363331   2   1   2   3
  0.0589842522363327   1   2   2   3
  0.0075431700938694   3   2   2   3
 0.00754317009386945   2   3   2   3
   0.323788098450669   1   1   3   3
 0.00106121442473452   3   1   3   3
   0.322531890880944   2   2   3   3
 0.00106121442473451   1   3   3   3
    0.25624809565207   3   3   3   3
   0.261007854324667   4   4   3   3
   0.261007854325859   5   5   3   3
-0.00839666090280773   4   1   4   3
  0.0598135908835875   4   3   4   3
-0.00839666090280773   1   4   4   3
  0.0598135908835875   3   4   4   3
-0.00839666090301607   5   1   5   3
  0.0598135908838353   5   3   5   3
-0.00839666090301607   1   5   5   3
  0.0598135908838353   3   5   5   3
 0.00131895201801898   4   1   1   4
-0.00839666090280773   4   3   1   4
 0.00131895201801898   1   4   1   4
-0.00839666090280773   3   4   1   4
0.000467093339317194   4   2   2   4
 0.00046709333931719   2   4   2   4
-0.00839666090280773   4   1   3   4
  0.0598135908835875   4   3   3   4
-0.00839666090280773   1   4   3   4
  0.0598135908835875   3   4   3   4
   0.334433109637471   1   1   4   4
  0.0012553131217791   3   1   4   4
   0.332574307434869   2   2   4   4
 0.00125531312177909   1   3   4   4
   0.261007854324667   3   3   4   4
   0.282354506273442   4   4   4   4
   0.254943569131562   5   5   4   4
  0.0137054685716018   5   4   5   4
  0.0137054685716018   4   5   5   4
 0.00131895201807191   5   1   1   5
-0.00839666090301607   5   3   1   5
 0.00131895201807191   1   5   1   5
-0.00839666090301606   3   5   1   5
0.000467093339325747   5   2   2   5
0.000467093339325743   2   5   2   5
-0.00839666090301606   5   1   3   5
  0.0598135908838353   5   3   3   5
-0.00839666090301606   1   5   3   5
  0.0598135908838353   3   5   3   5
  0.0137054685716018   5   4   4   5
  0.0137054685716018   4   5   4   5
   0.334433109639991   1   1   5   5
 0.00125531312176855   3   1   5   5
    0.33257430743734   2   2   5   5
 0.00125531312176854   1   3   5   5
   0.261007854325859   3   3   5   5
   0.254943569131562   4   4   5   5
   0.282354506276089   5   5   5   5
-6.15435322846971   1   1   0   0
-0.112573940569264   3   1   0   0
-5.94332919676004   2   2   0   0
-0.112573940569264   1   3   0   0
-1.76095450748944   3   3   0   0
-1.76063425155114   4   4   0   0
-1.76063425156173   5   5   0   0
4.76259489603   0   0   0   0
