 &FCI NORB= 10,NELEC= 6,ORBSYM= 1, 1, 1, 1, 1, 1, 1, 1, 1, 1, 
 ISYM= 0 ,
 TREL=.TRUE.
 &END
(1.03132034697251,-8.87631125537835e-16)   1   1   1   1
(0.0547088503830918,9.16597858745584e-13)   5   1   1   1
(0.508564830857417,-0.00473242825837143)   3   1   3   1
(1.67897706662667e-06,-6.11822963840427e-07)   7   1   3   1
(2.47114709021805e-07,-1.79598926367697e-07)   9   1   3   1
(0.0547088503830918,9.16597858745584e-13)   1   1   5   1
(0.00527553161114405,1.76705329592278e-13)   5   1   5   1
(1.67897706662667e-06,-6.11822963840427e-07)   3   1   7   1
(1.62248583173618e-05,0.000490990859185591)   7   1   7   1
(1.57026568287844e-05,0.000450850268411547)   9   1   7   1
(2.47114709021805e-07,-1.79598926367697e-07)   3   1   9   1
(1.57026568287844e-05,0.000450850268411547)   7   1   9   1
(6.23618653636793e-06,0.000411399828217409)   9   1   9   1
(1.04956782052548,-6.72406495636994e-16)   3   3   1   1
(1.19375499505499e-06,9.71106266651158e-08)   7   3   1   1
(-6.54309906910681e-07,6.05662565013389e-08)   9   3   1   1
(0.508584978918198,3.64724483790539e-16)   1   3   3   1
(0.0527095155975595,2.78460916856285e-13)   5   3   3   1
(0.0572032059552309,9.58373221697389e-13)   3   3   5   1
(1.39505632145887e-07,2.11617626188241e-09)   7   3   5   1
(-3.74843354598788e-08,3.48546214928712e-09)   9   3   5   1
(2.2565944072849e-06,-4.61886598227394e-07)   1   3   7   1
(2.16981810466823e-07,-5.04073538468439e-08)   5   3   7   1
(5.54849408052041e-07,-5.01414025297931e-08)   1   3   9   1
(2.53718686480296e-08,-2.21467795907989e-09)   5   3   9   1
(0.0547088503830919,-9.16670725519734e-13)   1   5   1   1
(0.32381059109741,-1.87507901970385e-16)   5   5   1   1
(0.0527075646255691,-0.000490471293646303)   3   5   3   1
(1.44393311165299e-06,-3.30658889513714e-07)   7   5   3   1
(1.17576722378064e-07,-8.49841119280934e-08)   9   5   3   1
(0.00527550260290059,7.66553716070082e-19)   1   5   5   1
(0.00106154487398573,1.79868420016509e-14)   5   5   5   1
(1.45600282503007e-07,-4.1060409580151e-08)   3   5   7   1
(-0.00010290153929025,-0.00311984831268409)   7   5   7   1
(-9.97959387054769e-05,-0.00286531906875248)   9   5   7   1
(4.56390569383819e-09,-3.21312304093816e-09)   3   5   9   1
(-9.98165145193696e-05,-0.0028659164835063)   7   5   9   1
(-3.96451298899479e-05,-0.00261539407666551)   9   5   9   1
(1.19375499505499e-06,-9.71106266651282e-08)   3   7   1   1
(0.33443928232186,4.83892087113056e-17)   7   7   1   1
(-6.81917444080283e-07,3.89274045781621e-08)   9   7   1   1
(2.25659440728488e-06,4.61886598227413e-07)   1   7   3   1
(8.30722316002338e-07,2.13357750944646e-07)   5   7   3   1
(1.33228584092252e-07,-2.80204033328533e-09)   3   7   5   1
(0.00125495569578184,2.12896809371983e-14)   7   7   5   1
(-1.96412341307706e-08,1.09382119376532e-09)   9   7   5   1
(0.00065744386925982,1.62102584642017e-19)   1   7   7   1
(-0.00419664644986061,-3.64313492682596e-11)   5   7   7   1
(0.000653406625652701,-3.66344298557981e-05)   1   7   9   1
(-0.00416884840023533,0.000233734422373517)   5   7   9   1
(-6.54309906910685e-07,-6.05662565013386e-08)   3   9   1   1
(-6.81917444224774e-07,-3.89274045764772e-08)   7   9   1   1
(0.334437072980017,1.32997968702091e-17)   9   9   1   1
(5.54849408052038e-07,5.0141402529794e-08)   1   9   3   1
(8.20234339389652e-08,7.03439940244418e-09)   5   9   3   1
(-3.87769841515434e-08,-3.60302136435394e-09)   3   9   5   1
(-1.9641110380778e-08,-1.09381420555703e-09)   7   9   5   1
(0.00125483262704968,2.12497642784753e-14)   9   9   5   1
(0.0006534066256527,3.66344298557982e-05)   1   9   7   1
(-0.00416918823907239,-0.000233753476242412)   5   9   7   1
(0.000658195607152253,-5.42181736352476e-20)   1   9   9   1
(-0.00419849611599938,3.63061989321416e-11)   5   9   9   1
(0.508584978918198,3.64724483790539e-16)   3   1   1   3
(2.2565944072849e-06,-4.61886598227394e-07)   7   1   1   3
(5.54849408052041e-07,-5.01414025297931e-08)   9   1   1   3
(1.04956782052548,-6.72406495636994e-16)   1   1   3   3
(0.0572032059552309,9.58373221697389e-13)   5   1   3   3
(0.0527095155975595,2.78460916856285e-13)   3   1   5   3
(2.16981810466823e-07,-5.04073538468439e-08)   7   1   5   3
(2.53718686480296e-08,-2.21467795907989e-09)   9   1   5   3
(1.19375499505499e-06,9.71106266651158e-08)   1   1   7   3
(1.39505632145887e-07,2.11617626188241e-09)   5   1   7   3
(-6.54309906910681e-07,6.05662565013389e-08)   1   1   9   3
(-3.74843354598788e-08,3.48546214928712e-09)   5   1   9   3
(0.50856483085742,0.00473242825837219)   1   3   1   3
(0.0527075646255688,0.000490471293646392)   5   3   1   3
(1.06950484305016,-4.79384660178464e-16)   3   3   3   3
(1.34624590239149e-06,7.59366520593656e-08)   7   3   3   3
(-4.66974266642438e-07,1.18842094941242e-07)   9   3   3   3
(0.0527075646255688,0.000490471293646392)   1   3   5   3
(0.00673995368652072,6.27188925269051e-05)   5   3   5   3
(1.34624590239149e-06,7.59366520593656e-08)   3   3   7   3
(-4.55554344644548e-06,0.00013870489001585)   7   3   7   3
(2.25411693479854e-05,0.000167308761587419)   9   3   7   3
(-4.66974266642438e-07,1.18842094941242e-07)   3   3   9   3
(2.25411693479854e-05,0.000167308761587419)   7   3   9   3
(-5.9540142332257e-06,0.000115917403390058)   9   3   9   3
(0.0527095155975605,-2.7836903075453e-13)   3   5   1   3
(8.30722316002302e-07,-2.13357750944544e-07)   7   5   1   3
(8.20234339389693e-08,-7.03439940244456e-09)   9   5   1   3
(0.0572032059552309,-9.58424883113518e-13)   1   5   3   3
(0.322556104039372,-2.31609866624795e-16)   5   5   3   3
(0.00674015212139775,7.08120654136073e-18)   3   5   5   3
(-9.24894999265318e-08,1.34716922298618e-08)   7   5   5   3
(-3.98591536327932e-08,3.65776943004084e-09)   9   5   5   3
(1.33228584092251e-07,2.80204033328397e-09)   1   5   7   3
(-1.75487383832783e-08,2.23574700416553e-08)   5   5   7   3
(-3.87769841515434e-08,3.60302136435392e-09)   1   5   9   3
(-9.00695976569457e-08,8.29666743186515e-09)   5   5   9   3
(1.67897706662667e-06,6.11822963840449e-07)   1   7   1   3
(1.44393311165304e-06,3.30658889513821e-07)   5   7   1   3
(1.34624590239149e-06,-7.59366520593783e-08)   3   7   3   3
(0.332583146564444,5.0569366922157e-17)   7   7   3   3
(-5.2466153516868e-07,9.67604216478499e-08)   9   7   3   3
(1.45600282503003e-07,4.10604095801553e-08)   1   7   5   3
(7.66808073380782e-08,3.09786629867123e-08)   5   7   5   3
(0.000138802724253222,1.05823873081627e-18)   3   7   7   3
(1.49916264421124e-09,2.04050654738609e-09)   7   7   7   3
(2.08704325303143e-08,8.48220147469131e-08)   9   7   7   3
(0.000179332260692816,-3.28859455929052e-05)   3   7   9   3
(-1.66986582973792e-09,-7.01115229339377e-09)   7   7   9   3
(-3.18941301148881e-08,3.44684885562878e-08)   9   7   9   3
(2.47114709021799e-07,1.79598926367697e-07)   1   9   1   3
(1.17576722378061e-07,8.49841119280933e-08)   5   9   1   3
(-4.66974266642441e-07,-1.18842094941243e-07)   3   9   3   3
(-5.24661535325516e-07,-9.67604216382505e-08)   7   9   3   3
(0.332580278184223,1.23679214301534e-17)   9   9   3   3
(4.56390569383692e-09,3.21312304093819e-09)   1   9   5   3
(2.79379533592853e-08,2.04077679235797e-08)   5   9   5   3
(0.000179332260692815,3.28859455929051e-05)   3   9   7   3
(-1.28047413799662e-07,-4.02641591579972e-08)   7   9   7   3
(1.37151205506171e-08,6.87286901454103e-09)   9   9   7   3
(0.000342821261257369,-1.39592373876004e-18)   3   9   9   3
(-2.98661077718346e-07,-4.17258864660976e-08)   7   9   9   3
(0.0547088503830919,-9.16670725519734e-13)   1   1   1   5
(0.00527550260290059,7.66553716070082e-19)   5   1   1   5
(0.0527075646255691,-0.000490471293646303)   3   1   3   5
(1.45600282503007e-07,-4.1060409580151e-08)   7   1   3   5
(4.56390569383819e-09,-3.21312304093816e-09)   9   1   3   5
(0.32381059109741,-1.87507901970385e-16)   1   1   5   5
(0.00106154487398573,1.79868420016509e-14)   5   1   5   5
(1.44393311165299e-06,-3.30658889513714e-07)   3   1   7   5
(-0.00010290153929025,-0.00311984831268409)   7   1   7   5
(-9.98165145193696e-05,-0.0028659164835063)   9   1   7   5
(1.17576722378064e-07,-8.49841119280934e-08)   3   1   9   5
(-9.97959387054769e-05,-0.00286531906875248)   7   1   9   5
(-3.96451298899479e-05,-0.00261539407666551)   9   1   9   5
(0.0572032059552309,-9.58424883113518e-13)   3   3   1   5
(1.33228584092251e-07,2.80204033328397e-09)   7   3   1   5
(-3.87769841515434e-08,3.60302136435392e-09)   9   3   1   5
(0.0527095155975605,-2.7836903075453e-13)   1   3   3   5
(0.00674015212139775,7.08120654136073e-18)   5   3   3   5
(0.322556104039372,-2.31609866624795e-16)   3   3   5   5
(-1.75487383832783e-08,2.23574700416553e-08)   7   3   5   5
(-9.00695976569457e-08,8.29666743186515e-09)   9   3   5   5
(8.30722316002301e-07,-2.13357750944544e-07)   1   3   7   5
(-9.24894999265318e-08,1.34716922298618e-08)   5   3   7   5
(8.20234339389693e-08,-7.03439940244456e-09)   1   3   9   5
(-3.98591536327932e-08,3.65776943004084e-09)   5   3   9   5
(0.00527553161114406,-1.76703796519031e-13)   1   5   1   5
(0.00106154487398574,-1.80470132114357e-14)   5   5   1   5
(0.006739953686521,-6.27188925268935e-05)   3   5   3   5
(7.66808073380697e-08,-3.09786629866857e-08)   7   5   3   5
(2.79379533592861e-08,-2.04077679235798e-08)   9   5   3   5
(0.00106154487398574,-1.80470132114357e-14)   1   5   5   5
(0.256261996390168,-5.02907157550956e-17)   5   5   5   5
(7.66808073380697e-08,-3.09786629866857e-08)   3   5   7   5
(0.00073309695309387,0.0222289187613687)   7   5   7   5
(0.000711145849861656,0.0204182935939243)   9   5   7   5
(2.79379533592861e-08,-2.04077679235798e-08)   3   5   9   5
(0.000711145849861656,0.0204182935939243)   7   5   9   5
(0.000282490913870995,0.0186359707800742)   9   5   9   5
(1.39505632145888e-07,-2.1161762618831e-09)   3   7   1   5
(0.00125495569578185,-2.12795736676932e-14)   7   7   1   5
(-1.96411103620849e-08,1.09381420832567e-09)   9   7   1   5
(2.16981810466824e-07,5.04073538468494e-08)   1   7   3   5
(-9.24894999265224e-08,-1.34716922298351e-08)   5   7   3   5
(-1.75487383832784e-08,-2.23574700416581e-08)   3   7   5   5
(0.26101846416323,-6.89839784984193e-18)   7   7   5   5
(-2.4231118832598e-07,1.40105496358604e-08)   9   7   5   5
(-0.00419664644986061,3.64313466663749e-11)   1   7   7   5
(0.0299063536235368,5.20413403198347e-18)   5   7   7   5
(-0.0041691882390724,0.000233753476242409)   1   7   9   5
(0.0297063115039489,-0.00166554200710837)   5   7   9   5
(-3.74843354598794e-08,-3.48546214928719e-09)   3   9   1   5
(-1.96412341492581e-08,-1.09382119093966e-09)   7   9   1   5
(0.00125483262704969,-2.1245005881239e-14)   9   9   1   5
(2.53718686480286e-08,2.21467795908002e-09)   1   9   3   5
(-3.9859153632794e-08,-3.65776943004096e-09)   5   9   3   5
(-9.00695976569452e-08,-8.29666743186513e-09)   3   9   5   5
(-2.42311188323528e-07,-1.40105496198457e-08)   7   9   5   5
(0.261018060893752,-2.73988422223883e-17)   9   9   5   5
(-0.00416884840023533,-0.000233734422373517)   1   9   7   5
(0.0297063115039488,0.00166554200710839)   5   9   7   5
(-0.00419849611599938,-3.6306199582662e-11)   1   9   9   5
(0.0299137560565879,1.2143059368754e-17)   5   9   9   5
(2.25659440728488e-06,4.61886598227413e-07)   3   1   1   7
(0.00065744386925982,1.62102584642017e-19)   7   1   1   7
(0.000653406625652701,-3.66344298557981e-05)   9   1   1   7
(1.19375499505499e-06,-9.71106266651282e-08)   1   1   3   7
(1.33228584092252e-07,-2.80204033328533e-09)   5   1   3   7
(8.30722316002338e-07,2.13357750944646e-07)   3   1   5   7
(-0.00419664644986061,-3.64313492682596e-11)   7   1   5   7
(-0.00416884840023533,0.000233734422373517)   9   1   5   7
(0.33443928232186,4.83892087113056e-17)   1   1   7   7
(0.00125495569578184,2.12896809371983e-14)   5   1   7   7
(-6.81917444080283e-07,3.89274045781621e-08)   1   1   9   7
(-1.96412341307706e-08,1.09382119376532e-09)   5   1   9   7
(1.67897706662667e-06,6.11822963840449e-07)   1   3   1   7
(1.45600282503003e-07,4.10604095801553e-08)   5   3   1   7
(1.34624590239149e-06,-7.59366520593783e-08)   3   3   3   7
(0.000138802724253222,1.05823873081627e-18)   7   3   3   7
(0.000179332260692816,-3.28859455929052e-05)   9   3   3   7
(1.44393311165304e-06,3.30658889513821e-07)   1   3   5   7
(7.66808073380782e-08,3.09786629867123e-08)   5   3   5   7
(0.332583146564444,5.0569366922157e-17)   3   3   7   7
(1.49916264421124e-09,2.04050654738609e-09)   7   3   7   7
(-1.66986582973792e-09,-7.01115229339377e-09)   9   3   7   7
(-5.2466153516868e-07,9.67604216478499e-08)   3   3   9   7
(2.08704325303143e-08,8.48220147469131e-08)   7   3   9   7
(-3.18941301148881e-08,3.44684885562878e-08)   9   3   9   7
(2.16981810466824e-07,5.04073538468494e-08)   3   5   1   7
(-0.00419664644986061,3.64313466663749e-11)   7   5   1   7
(-0.0041691882390724,0.000233753476242409)   9   5   1   7
(1.39505632145888e-07,-2.1161762618831e-09)   1   5   3   7
(-1.75487383832784e-08,-2.23574700416581e-08)   5   5   3   7
(-9.24894999265224e-08,-1.34716922298351e-08)   3   5   5   7
(0.0299063536235368,5.20413403198347e-18)   7   5   5   7
(0.0297063115039489,-0.00166554200710837)   9   5   5   7
(0.00125495569578185,-2.12795736676932e-14)   1   5   7   7
(0.26101846416323,-6.89839784984193e-18)   5   5   7   7
(-1.96411103620849e-08,1.09381420832567e-09)   1   5   9   7
(-2.4231118832598e-07,1.40105496358604e-08)   5   5   9   7
(1.62248583173624e-05,-0.000490990859185591)   1   7   1   7
(-0.000102901539290253,0.00311984831268409)   5   7   1   7
(-4.55554344644338e-06,-0.00013870489001585)   3   7   3   7
(1.49916264421026e-09,-2.0405065473864e-09)   7   7   3   7
(-1.28047413799662e-07,4.02641591579983e-08)   9   7   3   7
(-0.000102901539290253,0.00311984831268409)   1   7   5   7
(0.000733096953093884,-0.0222289187613687)   5   7   5   7
(1.49916264421026e-09,-2.0405065473864e-09)   3   7   7   7
(0.268655502572142,2.23364265594662e-17)   7   7   7   7
(7.87731755863225e-06,2.46385824039842e-07)   9   7   7   7
(-1.28047413799662e-07,4.02641591579983e-08)   3   7   9   7
(7.87731755863225e-06,2.46385824039842e-07)   7   7   9   7
(0.00635216193147934,0.000115447310280529)   9   7   9   7
(1.57026568287846e-05,-0.000450850268411547)   1   9   1   7
(-9.97959387054813e-05,0.00286531906875248)   5   9   1   7
(2.25411693479853e-05,-0.000167308761587418)   3   9   3   7
(2.08704325303152e-08,-8.48220147469125e-08)   7   9   3   7
(1.37151205506159e-08,-6.87286901454134e-09)   9   9   3   7
(-9.98165145193701e-05,0.00286591648350631)   1   9   5   7
(0.000711145849861678,-0.0204182935939243)   5   9   5   7
(-1.66986582973841e-09,7.01115229339366e-09)   3   9   7   7
(7.87731755863573e-06,-2.46385824026293e-07)   7   9   7   7
(0.268654968264364,2.2154371856078e-18)   9   9   7   7
(-2.98661077718345e-07,4.1725886466099e-08)   3   9   9   7
(0.00653540436199919,-3.59135714082441e-19)   7   9   9   7
(-7.90209826262157e-06,-2.76160708413523e-07)   9   9   9   7
(5.54849408052038e-07,5.0141402529794e-08)   3   1   1   9
(0.0006534066256527,3.66344298557982e-05)   7   1   1   9
(0.000658195607152253,-5.42181736352476e-20)   9   1   1   9
(-6.54309906910685e-07,-6.05662565013386e-08)   1   1   3   9
(-3.87769841515434e-08,-3.60302136435394e-09)   5   1   3   9
(8.20234339389652e-08,7.03439940244418e-09)   3   1   5   9
(-0.00416918823907239,-0.000233753476242412)   7   1   5   9
(-0.00419849611599938,3.63061989321416e-11)   9   1   5   9
(-6.81917444224774e-07,-3.89274045764772e-08)   1   1   7   9
(-1.9641110380778e-08,-1.09381420555703e-09)   5   1   7   9
(0.334437072980017,1.32997968702088e-17)   1   1   9   9
(0.00125483262704968,2.12497642784752e-14)   5   1   9   9
(2.47114709021799e-07,1.79598926367697e-07)   1   3   1   9
(4.56390569383692e-09,3.21312304093819e-09)   5   3   1   9
(-4.66974266642441e-07,-1.18842094941243e-07)   3   3   3   9
(0.000179332260692815,3.28859455929051e-05)   7   3   3   9
(0.000342821261257369,-1.39592373876004e-18)   9   3   3   9
(1.17576722378061e-07,8.49841119280933e-08)   1   3   5   9
(2.79379533592853e-08,2.04077679235797e-08)   5   3   5   9
(-5.24661535325516e-07,-9.67604216382505e-08)   3   3   7   9
(-1.28047413799662e-07,-4.02641591579972e-08)   7   3   7   9
(-2.98661077718346e-07,-4.17258864660976e-08)   9   3   7   9
(0.332580278184223,1.23679214301533e-17)   3   3   9   9
(1.37151205506171e-08,6.87286901454103e-09)   7   3   9   9
(2.53718686480286e-08,2.21467795908002e-09)   3   5   1   9
(-0.00416884840023533,-0.000233734422373517)   7   5   1   9
(-0.00419849611599938,-3.6306199582662e-11)   9   5   1   9
(-3.74843354598794e-08,-3.48546214928719e-09)   1   5   3   9
(-9.00695976569452e-08,-8.29666743186513e-09)   5   5   3   9
(-3.9859153632794e-08,-3.65776943004096e-09)   3   5   5   9
(0.0297063115039488,0.00166554200710839)   7   5   5   9
(0.0299137560565879,1.2143059368754e-17)   9   5   5   9
(-1.96412341492581e-08,-1.09382119093966e-09)   1   5   7   9
(-2.42311188323528e-07,-1.40105496198457e-08)   5   5   7   9
(0.00125483262704969,-2.12450058812386e-14)   1   5   9   9
(0.261018060893752,-2.73988422223883e-17)   5   5   9   9
(1.57026568287846e-05,-0.000450850268411547)   1   7   1   9
(-9.98165145193701e-05,0.00286591648350631)   5   7   1   9
(2.25411693479853e-05,-0.000167308761587418)   3   7   3   9
(-1.66986582973841e-09,7.01115229339366e-09)   7   7   3   9
(-2.98661077718345e-07,4.1725886466099e-08)   9   7   3   9
(-9.97959387054813e-05,0.00286531906875248)   1   7   5   9
(0.000711145849861678,-0.0204182935939243)   5   7   5   9
(2.08704325303152e-08,-8.48220147469125e-08)   3   7   7   9
(7.87731755863573e-06,-2.46385824026293e-07)   7   7   7   9
(0.00653540436199919,-3.59135714082441e-19)   9   7   7   9
(1.3715120550616e-08,-6.87286901454134e-09)   3   7   9   9
(0.268654968264364,2.21543718560778e-18)   7   7   9   9
(-7.90209826262153e-06,-2.7616070841353e-07)   9   7   9   9
(6.23618653636793e-06,-0.000411399828217409)   1   9   1   9
(-3.96451298899496e-05,0.00261539407666551)   5   9   1   9
(-5.95401423322984e-06,-0.000115917403390056)   3   9   3   9
(-3.18941301148865e-08,-3.44684885562871e-08)   7   9   3   9
(-3.96451298899496e-05,0.00261539407666551)   1   9   5   9
(0.000282490913871025,-0.0186359707800742)   5   9   5   9
(-3.18941301148865e-08,-3.44684885562871e-08)   3   9   7   9
(0.00635216193147934,-0.00011544731028053)   7   9   7   9
(-7.90209826261839e-06,2.76160708425882e-07)   9   9   7   9
(-7.90209826261841e-06,2.7616070842588e-07)   7   9   9   9
(0.268653860320667,-1.79009742342969e-17)   9   9   9   9
(0.171827889588345,0.0366505023331947)   3   2   3   1
(1.48419151237872e-06,7.9776712579548e-07)   7   2   3   1
(2.8316823305713e-07,1.8875100306677e-07)   9   2   3   1
(8.04155712223885e-07,2.31992849353533e-07)   3   2   7   1
(1.93561911268793e-07,-8.24393888651693e-07)   7   2   7   1
(4.15282305214533e-05,5.26999957923504e-05)   9   2   7   1
(2.82896733629741e-07,1.89589572633433e-07)   3   2   9   1
(4.15281757161664e-05,5.27005526696493e-05)   7   2   9   1
(5.86134143030621e-08,-8.3758244249017e-07)   9   2   9   1
(1.746316501322e-06,3.72485381314897e-07)   3   4   1   1
(1.59702953653443e-06,1.05024242607932e-06)   7   4   1   1
(-3.50842525774483e-07,-2.37035000213888e-07)   9   4   1   1
(-0.17182885606759,-0.036650708481044)   1   4   3   1
(-0.0178082482343194,-0.0037984592919536)   5   4   3   1
(8.26238662118366e-08,1.76234847479938e-08)   3   4   5   1
(1.39111418421284e-07,9.83826570282622e-08)   7   4   5   1
(-2.00931022386765e-08,-1.36411419122732e-08)   9   4   5   1
(-3.05288647701377e-07,2.81335326276533e-07)   1   4   7   1
(-6.03456423472841e-08,1.11381247033403e-08)   5   4   7   1
(2.97389014952797e-07,1.98699506519476e-07)   1   4   9   1
(1.35651339269615e-08,9.04556507783805e-09)   5   4   9   1
(0.0178081909238532,0.00379844706775995)   3   6   3   1
(1.81704546798453e-06,1.04893828179681e-06)   7   6   3   1
(1.34781688067529e-07,8.88553470795444e-08)   9   6   3   1
(5.17640884542057e-08,-1.8563947178742e-10)   3   6   7   1
(-9.37111133862229e-07,5.32678966498603e-06)   7   6   7   1
(-0.000263926901572264,-0.000334929301669055)   9   6   7   1
(5.18208171226151e-09,3.50050327476249e-09)   3   6   9   1
(-0.000263981896615732,-0.000334999508230835)   7   6   9   1
(-3.72550107119356e-07,5.32367969409547e-06)   9   6   9   1
(-1.41763096407996e-07,-3.96395665885127e-07)   3   8   1   1
(-2.08260744514945e-07,-6.26494741076695e-08)   7   8   1   1
(4.33689385631278e-08,5.27795219461965e-08)   9   8   1   1
(-2.49384672593616e-06,-1.53967476312289e-06)   1   8   3   1
(-1.0678763747444e-06,-6.20105906422375e-07)   5   8   3   1
(-4.35151021582962e-08,-5.40677294962978e-08)   3   8   5   1
(-6.53283126589573e-09,-1.96287362511976e-09)   7   8   5   1
(1.25168476308246e-09,1.48961209973051e-09)   9   8   5   1
(-9.02281612190924e-08,8.51627794017755e-07)   1   8   7   1
(8.70026660405241e-07,-5.34652540395834e-06)   5   8   7   1
(-4.13682745951338e-05,-5.2496902606879e-05)   1   8   9   1
(0.000263936642787573,0.000334941307144538)   5   8   9   1
(-3.515356908641e-07,-2.34892496914292e-07)   3  10   1   1
(4.29390114964782e-08,5.67687027609133e-08)   7  10   1   1
(2.96556206276151e-07,2.01303024147032e-07)   1  10   3   1
(4.3498828133116e-08,3.00953648058513e-08)   5  10   3   1
(-2.08575193392562e-08,-1.38826576848684e-08)   3  10   5   1
(1.23454038757465e-09,1.66613760517955e-09)   7  10   5   1
(-4.13682009408112e-05,-5.24976567353039e-05)   1  10   7   1
(0.000263958062597804,0.000334969625529883)   5  10   7   1
(-5.83876016299857e-08,8.34356273919562e-07)   1  10   9   1
(3.72540138419246e-07,-5.32353768863863e-06)   5  10   9   1
(0.171480061182878,0.0382479904668325)   3   2   1   3
(1.49679389664864e-06,1.04692751610375e-06)   7   2   1   3
(5.60614495480061e-07,1.42438319785191e-07)   9   2   1   3
(-1.39536046017402e-06,-3.88718742699424e-07)   1   2   3   3
(-5.02299650672462e-08,-1.83935015237888e-08)   5   2   3   3
(0.017772055345,0.00396400071733601)   3   2   5   3
(2.20089877323079e-07,1.38239973056211e-07)   7   2   5   3
(2.56443715404417e-08,6.40249340018001e-09)   9   2   5   3
(-3.80734495907572e-07,-3.95004390744291e-07)   1   2   7   3
(-2.4456817040623e-08,-2.48963577600405e-08)   5   2   7   3
(-6.61913872943669e-07,-1.69258180461009e-07)   1   2   9   3
(-3.79431337071064e-08,-9.69979932929931e-09)   5   2   9   3
(-0.171479738437627,-0.0382477753348128)   1   4   1   3
(-0.0177721526217415,-0.00396398796242189)   5   4   1   3
(3.07092099286308e-07,-2.03280259355225e-08)   3   4   3   3
(1.38722757067976e-06,8.9517085266862e-07)   7   4   3   3
(-2.1349750771898e-07,-1.26689928495508e-07)   9   4   3   3
(-0.017772152621677,-0.0039639879603975)   1   4   5   3
(-0.00227260607996404,-0.000506892837394131)   5   4   5   3
(-1.54462010998951e-07,-3.87557776514182e-07)   3   4   7   3
(-3.35955192855229e-06,-0.00010491359337853)   7   4   7   3
(3.29925795335227e-05,1.39362755511621e-05)   9   4   7   3
(-2.14094973564693e-07,-1.24830444766918e-07)   3   4   9   3
(3.29925426632588e-05,1.39366510840181e-05)   7   4   9   3
(-1.30659277616161e-06,-8.81291323345675e-05)   9   4   9   3
(0.0177720553450643,0.00396400071936048)   3   6   1   3
(1.40080419457743e-06,7.69428325251149e-07)   7   6   1   3
(8.30931508479674e-08,2.03485455192636e-08)   9   6   1   3
(-5.02298427857811e-08,-1.8389573535196e-08)   1   6   3   3
(-3.34585050280779e-07,-6.83229216805359e-08)   5   6   3   3
(0.00227257210379262,0.000506890371195999)   3   6   5   3
(6.02193632928501e-09,-9.44548247571742e-09)   7   6   5   3
(-4.02627120378945e-08,-1.0315841130569e-08)   9   6   5   3
(-2.52149878011813e-08,-2.56368987291919e-08)   1   6   7   3
(-4.85331158441382e-08,-4.99208963081391e-08)   5   6   7   3
(-3.92480488724243e-08,-1.00335214998981e-08)   1   6   9   3
(-9.10580055660885e-08,-2.32895342515552e-08)   5   6   9   3
(-2.41656704886993e-06,-1.30406145171059e-06)   1   8   1   3
(-1.7302968686777e-06,-1.06949085532681e-06)   5   8   1   3
(-4.53836859454224e-07,-6.36560909920477e-07)   3   8   3   3
(-1.68000416837158e-07,2.07490523855379e-07)   7   8   3   3
(9.63941796805381e-08,3.80335380637225e-08)   9   8   3   3
(-1.88236842549854e-07,-1.09902345010788e-07)   1   8   5   3
(-1.15743787890547e-07,-6.03580579767168e-08)   5   8   5   3
(3.38519472324953e-06,0.000104341867382625)   3   8   7   3
(1.90698036953068e-09,-5.6998616621739e-09)   7   8   7   3
(5.53553548061682e-08,-5.33671444705965e-08)   9   8   7   3
(-3.28561344370576e-05,-1.38784456374602e-05)   3   8   9   3
(-4.50434129484826e-09,4.05300909732587e-09)   7   8   9   3
(3.05001402931865e-08,-8.50983034412114e-08)   9   8   9   3
(5.31470249238302e-07,1.37934660615992e-07)   1  10   1   3
(2.52094762198482e-07,6.59442980479267e-08)   5  10   1   3
(-2.14230182958752e-07,-1.24424452093283e-07)   3  10   3   3
(9.59634597503544e-08,4.20373076695948e-08)   7  10   3   3
(-9.54276098274518e-09,-6.45748771004901e-07)   9  10   3   3
(9.67176528481115e-09,2.61937144249043e-09)   1  10   5   3
(6.02196367436294e-08,1.55175927646395e-08)   5  10   5   3
(-3.28560890095159e-05,-1.38789100035259e-05)   3  10   7   3
(7.42263926953581e-08,-7.15550703890111e-08)   7  10   7   3
(-5.23303231667939e-09,1.41593886499645e-08)   9  10   7   3
(1.30248793490217e-06,8.78527366005688e-05)   3  10   9   3
(3.94104496248067e-08,-1.09977266812501e-07)   7  10   9   3
(0.0178081909238096,0.00379844706554793)   3   2   3   5
(1.74569906402178e-07,1.01990820437443e-07)   7   2   3   5
(5.2299346667913e-09,3.35174631805322e-09)   9   2   3   5
(6.05757990391043e-07,4.10488856552699e-08)   3   2   7   5
(-9.37111347125395e-07,5.32678967290824e-06)   7   2   7   5
(-0.000263981935947938,-0.000334999141181373)   9   2   7   5
(1.34328359762395e-07,9.02752862582934e-08)   3   2   9   5
(-0.000263926862261839,-0.000334929668687442)   7   2   9   5
(-3.72550286478066e-07,5.32367969672718e-06)   9   2   9   5
(8.26238661988521e-08,1.76234847504551e-08)   3   4   1   5
(1.3687373793353e-07,9.60169155215648e-08)   7   4   1   5
(-2.07868116962903e-08,-1.41021350514938e-08)   9   4   1   5
(-0.0178082482342762,-0.00379845928974173)   1   4   3   5
(-0.00227720179604272,-0.000485722020930609)   5   4   3   5
(3.06940300721077e-07,6.54696772047963e-08)   3   4   5   5
(9.8953596348333e-08,4.72984692396658e-08)   7   4   5   5
(-4.83106610429577e-08,-3.24717058321231e-08)   9   4   5   5
(-3.36254057651063e-07,-1.13441166751606e-08)   1   4   7   5
(-1.5699369236853e-08,-2.60067439240065e-08)   5   4   7   5
(4.37736758050701e-08,2.92366275320262e-08)   1   4   9   5
(-2.13972716606833e-08,-1.42941448332622e-08)   5   4   9   5
(0.00227721287542224,0.000485724384137307)   3   6   3   5
(5.00184663692072e-08,2.3020215151948e-08)   7   6   3   5
(3.20202625043749e-08,2.14464673763277e-08)   9   6   3   5
(4.74523903989618e-08,2.08782147150009e-08)   3   6   7   5
(6.5618682337719e-06,-3.79891098957146e-05)   7   6   7   5
(0.00188074563666371,0.0023867110555448)   9   6   7   5
(3.20208856349926e-08,2.14453057876585e-08)   3   6   9   5
(0.00188074563004801,0.0023867107615054)   7   6   9   5
(2.65453424730073e-06,-3.79324962593354e-05)   9   6   9   5
(-4.83846072767284e-08,-5.76158508010941e-08)   3   8   1   5
(-6.53283126436111e-09,-1.96287362267267e-09)   7   8   1   5
(1.25167695080409e-09,1.48960188523663e-09)   9   8   1   5
(-2.60540551758582e-07,-1.55433512567627e-07)   1   8   3   5
(8.33318745786383e-08,5.6390010080997e-08)   5   8   3   5
(8.40554157988574e-08,3.49185939362882e-08)   3   8   5   5
(-5.59797206359721e-08,-1.69194026804502e-08)   7   8   5   5
(1.54030814164723e-08,1.90842355365478e-08)   9   8   5   5
(8.70026873856727e-07,-5.34652541174665e-06)   1   8   7   5
(-6.31483293819949e-06,3.80625364298493e-05)   5   8   7   5
(0.000263958158643407,0.000334968611145209)   1   8   9   5
(-0.00188075503109444,-0.00238672274887275)   5   8   9   5
(-2.01664543600931e-08,-1.34133491396914e-08)   3  10   1   5
(1.23454819860754e-09,1.6661474732386e-09)   7  10   1   5
(1.34884851376282e-08,9.28486600929217e-09)   1  10   3   5
(-2.13588445541262e-08,-1.44141728794014e-08)   5  10   3   5
(-4.8320301227599e-08,-3.24448810613215e-08)   3  10   5   5
(1.52801839503919e-08,1.98593080965211e-08)   7  10   5   5
(0.000263936546763424,0.000334942321506556)   1  10   7   5
(-0.0018807550454731,-0.00238672296368241)   5  10   7   5
(3.72540317798964e-07,-5.32353769126458e-06)   1  10   9   5
(-2.65454743565502e-06,3.79326863629014e-05)   5  10   9   5
(-1.16562331166288e-07,5.28247798694377e-07)   3   2   1   7
(-0.000440226576174894,-2.85577383382024e-07)   7   2   1   7
(0.000476815151396051,-5.37880348387219e-05)   9   2   1   7
(4.57783604252912e-07,-4.23961050726642e-07)   1   2   3   7
(2.85797122630669e-08,-2.69014200511943e-08)   5   2   3   7
(5.91412477956858e-07,2.07237073115623e-08)   3   2   5   7
(0.00280971207273299,1.60571546008304e-06)   7   2   5   7
(-0.00304216343570294,0.00034317725543209)   9   2   5   7
(-3.56420648575566e-07,1.53477045837456e-07)   1   2   7   7
(-1.31554920763988e-08,4.81336368129207e-09)   5   2   7   7
(-4.97790076941377e-07,5.59282208355709e-08)   1   2   9   7
(-1.43396442113451e-08,1.61002026609883e-09)   5   2   9   7
(-1.09702220477205e-06,1.63785154371396e-08)   1   4   1   7
(-5.77489744865563e-08,-1.7460913750504e-08)   5   4   1   7
(4.64187567108132e-07,-2.10412372784121e-07)   3   4   3   7
(-0.000124096960911678,8.1086585883181e-06)   7   4   3   7
(2.65903961625324e-05,-3.47188447713657e-05)   9   4   3   7
(-3.33483759014041e-07,-2.93891012597919e-07)   1   4   5   7
(-5.95185438665509e-08,5.51409030493184e-09)   5   4   5   7
(-2.43091014491516e-07,1.79520703817739e-07)   3   4   7   7
(-1.46548220354236e-10,-3.59960787708396e-09)   7   4   7   7
(-4.39983207433571e-09,-4.70387163348455e-09)   9   4   7   7