 &FCI NORB= 10,NELEC= 6,ORBSYM= 1, 1, 1, 1, 1, 1, 1, 1, 1, 1, 
 ISYM= 0 ,
 TREL=.TRUE.
 &END
(1.03131351142808,-5.66158108274634e-16)   1   1   1   1
(-3.08628094790625e-07,-2.01967759418335e-07)   3   1   1   1
(-0.0174678271292917,-0.0383887171260435)   5   1   1   1
(-3.08628094790625e-07,-2.01967759418335e-07)   1   1   3   1
(0.197590112628659,-0.175156688649966)   3   1   3   1
(-1.39968842866939e-06,1.24878724047508e-06)   5   1   3   1
(2.21408488713383e-07,1.23285325102614e-06)   7   1   3   1
(-5.3200747013856e-07,8.18661925244659e-08)   9   1   3   1
(-0.0174678271292917,-0.0383887171260435)   1   1   5   1
(-1.39968842866939e-06,1.24878724047508e-06)   3   1   5   1
(-0.0020499239889548,0.0023513482026412)   5   1   5   1
(2.21408488713383e-07,1.23285325102614e-06)   3   1   7   1
(0.000306849838624052,7.88656951374016e-05)   7   1   7   1
(-0.000265426444599369,0.000329184970760065)   9   1   7   1
(-5.3200747013856e-07,8.18661925244659e-08)   3   1   9   1
(-0.000265426444599369,0.000329184970760065)   7   1   9   1
(0.000410963938534066,-0.000219770858532201)   9   1   9   1
(-3.0862809521656e-07,2.01967759575473e-07)   1   3   1   1
(1.04966324346699,-7.05287848473485e-17)   3   3   1   1
(-5.12791704339149e-06,-1.19212975445675e-08)   5   3   1   1
(-6.52926369987713e-07,5.30489805057016e-07)   7   3   1   1
(-2.87317016172984e-07,2.58494935823307e-07)   9   3   1   1
(0.264045746831321,5.82868052420801e-16)   1   3   3   1
(-6.00918177375346e-08,-3.10887804561576e-07)   3   3   3   1
(-0.00876763883428979,-0.00107268044699714)   5   3   3   1
(-1.83157097443433e-06,3.15312435757906e-09)   1   3   5   1
(-0.018260851593623,-0.0401327548829946)   3   3   5   1
(1.8671909657179e-07,2.85212760491632e-07)   5   3   5   1
(9.417356784525e-08,3.58549253061124e-08)   7   3   5   1
(6.19588821612699e-09,1.40955012486038e-08)   9   3   5   1
(-1.24318524152989e-06,1.23291953900637e-06)   1   3   7   1
(4.91766845627779e-08,-1.10203012535788e-08)   5   3   7   1
(7.71341220626874e-09,-9.42506595409818e-09)   7   3   7   1
(1.95469876369579e-08,9.94777288429514e-09)   9   3   7   1
(2.45946152539743e-07,-2.17084445334977e-07)   1   3   9   1
(-3.65020538276982e-09,-8.34388009869109e-09)   5   3   9   1
(2.12214699370347e-08,1.07898512406419e-08)   7   3   9   1
(-9.07938145776914e-10,-1.65179710526955e-08)   9   3   9   1
(-0.0174678271292916,0.0383887171260435)   1   5   1   1
(-5.12791704342074e-06,1.19212975575278e-08)   3   5   1   1
(0.320238245668925,-9.23864048638661e-17)   5   5   1   1
(-1.83157097442672e-06,-3.15312435800613e-09)   1   5   3   1
(-0.00584925033276342,0.00661898634588668)   3   5   3   1
(1.00802359559336e-07,-4.41862148773517e-08)   5   5   3   1
(-1.36228313390735e-07,-2.93918250393679e-07)   7   5   3   1
(-7.74146518421715e-08,-2.73633935380272e-07)   9   5   3   1
(0.00311943662887286,-1.08416324329793e-18)   1   5   5   1
(1.68150454160269e-07,2.30350422518772e-07)   3   5   5   1
(-0.000338930237525167,-0.00073974231025757)   5   5   5   1
(-5.80257702025187e-09,-2.34425824512761e-08)   3   5   7   1
(0.00107897926012147,-0.00134244011582646)   7   5   7   1
(0.00279495748996592,0.00139407625573063)   9   5   7   1
(-2.08871945632029e-09,-7.32578356426436e-09)   3   5   9   1
(0.00303318401328235,0.00151390249676613)   7   5   9   1
(-0.000150646169661579,-0.00233335259057847)   9   5   9   1
(-6.52926369987708e-07,-5.30489805056998e-07)   3   7   1   1
(0.291900499572915,-1.9069081347329e-17)   7   7   1   1
(-3.6340608939627e-06,1.58855077510342e-05)   9   7   1   1
(-1.24318524152993e-06,-1.2329195390064e-06)   1   7   3   1
(1.84578912817337e-07,8.8543401336826e-08)   5   7   3   1
(-1.39956838639845e-09,-4.15804659783516e-09)   7   7   3   1
(-1.02036486514632e-08,8.68441830272502e-08)   3   7   5   1
(-0.000271238549476518,-0.000591695796753937)   7   7   5   1
(1.28800478285835e-07,-2.37227852248982e-08)   9   7   5   1
(0.000455746786168019,5.37270351465443e-20)   1   7   7   1
(1.76365747741475e-09,2.42582775605632e-08)   3   7   7   1
(0.000229520094014614,0.00345142610677231)   5   7   7   1
(-0.000214020091077497,5.82957254079196e-05)   1   7   9   1
(3.97322290410821e-09,-4.9310567514275e-09)   3   7   9   1
(0.000574088338505301,-0.000703602512920682)   5   7   9   1
(-2.87317016172988e-07,-2.58494935823309e-07)   3   9   1   1
(-3.63406089401047e-06,-1.58855077510248e-05)   7   9   1   1
(0.324874160137983,-6.3308836248015e-17)   9   9   1   1
(2.45946152539742e-07,2.17084445334977e-07)   1   9   3   1
(5.58798819739305e-09,-1.15440301150159e-08)   5   9   3   1
(-2.00574889887051e-09,-5.85640656504623e-09)   9   9   3   1
(-3.53899300048635e-09,5.34854031903838e-09)   3   9   5   1
(-9.61057447392032e-08,8.19323441522959e-08)   7   9   5   1
(-0.000381697457988443,-0.000833302172219965)   9   9   5   1
(-0.000214020091077497,-5.82957254079197e-05)   1   9   7   1
(3.34449385903931e-09,-2.2337806727638e-10)   3   9   7   1
(0.000484779287108735,-3.01095458926146e-05)   5   9   7   1
(0.000606318066926133,1.35589274660584e-19)   1   9   9   1
(2.93595891012198e-09,2.86305904797144e-08)   3   9   9   1
(0.00038997373588517,0.00407353547489998)   5   9   9   1
(-3.0862809521656e-07,2.01967759575473e-07)   1   1   1   3
(0.264045746831321,5.82868052420801e-16)   3   1   1   3
(-1.83157097443433e-06,3.15312435757906e-09)   5   1   1   3
(-1.24318524152989e-06,1.23291953900637e-06)   7   1   1   3
(2.45946152539743e-07,-2.17084445334977e-07)   9   1   1   3
(1.04966324346699,-7.05287848473485e-17)   1   1   3   3
(-6.00918177375346e-08,-3.10887804561576e-07)   3   1   3   3
(-0.018260851593623,-0.0401327548829946)   5   1   3   3
(-5.12791704339149e-06,-1.19212975445675e-08)   1   1   5   3
(-0.00876763883428979,-0.00107268044699714)   3   1   5   3
(1.8671909657179e-07,2.85212760491632e-07)   5   1   5   3
(4.91766845627779e-08,-1.10203012535788e-08)   7   1   5   3
(-3.65020538276982e-09,-8.34388009869109e-09)   9   1   5   3
(-6.52926369987713e-07,5.30489805057016e-07)   1   1   7   3
(9.417356784525e-08,3.58549253061124e-08)   5   1   7   3
(7.71341220626874e-09,-9.42506595409818e-09)   7   1   7   3
(2.12214699370347e-08,1.07898512406419e-08)   9   1   7   3
(-2.87317016172984e-07,2.58494935823307e-07)   1   1   9   3
(6.19588821612699e-09,1.40955012486038e-08)   5   1   9   3
(1.95469876369579e-08,9.94777288429514e-09)   7   1   9   3
(-9.07938145776914e-10,-1.65179710526955e-08)   9   1   9   3
(0.197590112628657,0.175156688649966)   1   3   1   3
(-6.00918184973718e-08,3.10887805698204e-07)   3   3   1   3
(-0.00584925033276331,-0.00661898634588665)   5   3   1   3
(-6.00918184973718e-08,3.10887805698204e-07)   1   3   3   3
(1.06970910923127,5.16524295018056e-16)   3   3   3   3
(-5.28428285864164e-06,-1.64108418300166e-08)   5   3   3   3
(-5.70177890101149e-07,5.84943534423987e-07)   7   3   3   3
(-4.53948824848442e-08,1.2981677699998e-07)   9   3   3   3
(-0.00584925033276331,-0.00661898634588665)   1   3   5   3
(-5.28428285864164e-06,-1.64108418300166e-08)   3   3   5   3
(0.000209344429947515,0.000304942751950001)   5   3   5   3
(-5.70177890101149e-07,5.84943534423987e-07)   3   3   7   3
(-2.96766395266856e-05,5.43830389823741e-05)   7   3   7   3
(-1.07526481797991e-05,-6.06829573659856e-05)   9   3   7   3
(-4.53948824848442e-08,1.2981677699998e-07)   3   3   9   3
(-1.07526481797991e-05,-6.06829573659856e-05)   7   3   9   3
(2.19261954354255e-05,8.82082537236931e-05)   9   3   9   3
(-1.39968842862474e-06,-1.24878724050711e-06)   1   5   1   3
(-0.00876763883428983,0.00107268044699708)   3   5   1   3
(1.00802359640486e-07,4.41862146870211e-08)   5   5   1   3
(1.84578912817033e-07,-8.85434013361859e-08)   7   5   1   3
(5.587988197391e-09,1.15440301150175e-08)   9   5   1   3
(-0.018260851593623,0.0401327548829946)   1   5   3   3
(-5.28428285869821e-06,1.6410841796237e-08)   3   5   3   3
(0.319111931659196,-4.12303012231909e-17)   5   5   3   3
(1.68150454153255e-07,-2.30350422518929e-07)   1   5   5   3
(0.000369853307158566,1.13843182325175e-18)   3   5   5   3
(-4.74567140690222e-07,-2.43341820001987e-09)   5   5   5   3
(6.33704549133093e-08,-6.69703286184989e-08)   7   5   5   3
(3.20465245519501e-09,-1.31719378242025e-08)   9   5   5   3
(-1.02036486514649e-08,-8.6844183027251e-08)   1   5   7   3
(-2.24454716404795e-08,6.87919187967364e-09)   5   5   7   3
(-5.1820233734311e-09,-1.09557451415791e-07)   7   5   7   3
(9.32251025435391e-08,-2.21500619330353e-07)   9   5   7   3
(-3.53899300048641e-09,-5.34854031903823e-09)   1   5   9   3
(5.85856010731801e-09,-2.36046082877214e-08)   5   5   9   3
(9.33173218573374e-08,-2.21454208892788e-07)   7   5   9   3
(-9.43203195551742e-08,-9.39547902879014e-08)   9   5   9   3
(2.21408488713367e-07,-1.23285325102618e-06)   1   7   1   3
(-1.36228313390934e-07,2.93918250394359e-07)   5   7   1   3
(-1.39956812959658e-09,4.15804593369906e-09)   7   7   1   3
(-5.70177890101151e-07,-5.84943534423978e-07)   3   7   3   3
(0.290589216921938,1.67077599574401e-17)   7   7   3   3
(-3.65917043389482e-06,1.56720651415863e-05)   9   7   3   3
(-5.80257702025141e-09,2.34425824512798e-08)   1   7   5   3
(1.79215648915346e-08,1.687603478952e-08)   5   7   5   3
(-3.78739568895599e-07,-2.31858003676819e-10)   7   7   5   3
(1.76365747695976e-09,-2.42582775607348e-08)   1   7   7   3
(6.40302994293912e-05,-5.38535731007496e-19)   3   7   7   3
(2.50293379509415e-07,1.32578882371343e-09)   5   7   7   3
(2.42654365105449e-08,-2.13640161615134e-08)   7   7   7   3
(-2.5262949725329e-08,4.11171994100517e-08)   9   7   7   3
(3.34449385910451e-09,2.23378066666188e-10)   1   7   9   3
(-5.00769345715074e-05,2.35859612748732e-05)   3   7   9   3
(6.96501001764946e-08,-3.47204294921614e-08)   5   7   9   3
(2.33266643424409e-09,-3.82067100507621e-09)   7   7   9   3
(1.68226164085143e-08,-6.43275790486288e-08)   9   7   9   3
(-5.32007470138559e-07,-8.18661925244671e-08)   1   9   1   3
(-7.74146518421713e-08,2.73633935380275e-07)   5   9   1   3
(-2.0057493332088e-09,5.85640772893126e-09)   9   9   1   3
(-4.53948824848456e-08,-1.29816776999984e-07)   3   9   3   3
(-3.65917043393585e-06,-1.5672065141575e-05)   7   9   3   3
(0.323125871980716,-2.80978600479543e-17)   9   9   3   3
(-2.08871945632024e-09,7.32578356426461e-09)   1   9   5   3
(8.53015730376989e-08,3.24958270457876e-08)   5   9   5   3
(-4.87710753294239e-07,-3.26194425199129e-10)   9   9   5   3
(3.97322290426364e-09,4.93105675259488e-09)   1   9   7   3
(-5.00769345715069e-05,-2.35859612748724e-05)   3   9   7   3
(6.96099306432051e-08,3.44483143898878e-08)   5   9   7   3
(-5.39711317290597e-08,1.08341251386951e-08)   7   9   7   3
(4.14633364594913e-08,-3.924561767497e-08)   9   9   7   3
(2.93595890902434e-09,-2.86305904799267e-08)   1   9   9   3
(9.91200756273129e-05,-7.11370777302235e-19)   3   9   9   3
(2.6529328649273e-07,1.56708533499638e-09)   5   9   9   3
(5.94734468296842e-08,-4.07970809452928e-08)   7   9   9   3
(-0.0174678271292916,0.0383887171260435)   1   1   1   5
(-1.83157097442672e-06,-3.15312435800613e-09)   3   1   1   5
(0.00311943662887286,-1.08416324329793e-18)   5   1   1   5
(-5.12791704342074e-06,1.19212975575278e-08)   1   1   3   5
(-0.00584925033276342,0.00661898634588668)   3   1   3   5
(1.68150454160269e-07,2.30350422518772e-07)   5   1   3   5
(-5.80257702025187e-09,-2.34425824512761e-08)   7   1   3   5
(-2.08871945632029e-09,-7.32578356426436e-09)   9   1   3   5
(0.320238245668925,-9.23864048638661e-17)   1   1   5   5
(1.00802359559336e-07,-4.41862148773517e-08)   3   1   5   5
(-0.000338930237525167,-0.00073974231025757)   5   1   5   5
(-1.36228313390735e-07,-2.93918250393679e-07)   3   1   7   5
(0.00107897926012147,-0.00134244011582646)   7   1   7   5
(0.00303318401328235,0.00151390249676613)   9   1   7   5
(-7.74146518421715e-08,-2.73633935380272e-07)   3   1   9   5
(0.00279495748996592,0.00139407625573063)   7   1   9   5
(-0.000150646169661579,-0.00233335259057847)   9   1   9   5
(-1.39968842862474e-06,-1.24878724050711e-06)   1   3   1   5
(-0.018260851593623,0.0401327548829946)   3   3   1   5
(1.68150454153255e-07,-2.30350422518929e-07)   5   3   1   5
(-1.02036486514649e-08,-8.6844183027251e-08)   7   3   1   5
(-3.53899300048641e-09,-5.34854031903823e-09)   9   3   1   5
(-0.00876763883428983,0.00107268044699708)   1   3   3   5
(-5.28428285869821e-06,1.6410841796237e-08)   3   3   3   5
(0.000369853307158566,1.13843182325175e-18)   5   3   3   5
(1.00802359640486e-07,4.41862146870211e-08)   1   3   5   5
(0.319111931659196,-4.12303012231909e-17)   3   3   5   5
(-4.74567140690222e-07,-2.43341820001987e-09)   5   3   5   5
(-2.24454716404795e-08,6.87919187967364e-09)   7   3   5   5
(5.85856010731801e-09,-2.36046082877214e-08)   9   3   5   5
(1.84578912817033e-07,-8.85434013361859e-08)   1   3   7   5
(6.33704549133093e-08,-6.69703286184989e-08)   5   3   7   5
(-5.1820233734311e-09,-1.09557451415791e-07)   7   3   7   5
(9.33173218573374e-08,-2.21454208892788e-07)   9   3   7   5
(5.587988197391e-09,1.15440301150175e-08)   1   3   9   5
(3.20465245519501e-09,-1.31719378242025e-08)   5   3   9   5
(9.32251025435391e-08,-2.21500619330353e-07)   7   3   9   5
(-9.43203195551742e-08,-9.39547902879014e-08)   9   3   9   5
(-0.0020499239889548,-0.00235134820264119)   1   5   1   5
(1.86719096567485e-07,-2.85212760491154e-07)   3   5   1   5
(-0.00033893023752516,0.000739742310257576)   5   5   1   5
(1.86719096567485e-07,-2.85212760491154e-07)   1   5   3   5
(0.000209344429947523,-0.000304942751950009)   3   5   3   5
(-4.74567140686514e-07,2.43341821195397e-09)   5   5   3   5
(1.79215648915128e-08,-1.68760347895698e-08)   7   5   3   5
(8.53015730376989e-08,-3.24958270457877e-08)   9   5   3   5
(-0.00033893023752516,0.000739742310257576)   1   5   5   5
(-4.74567140686514e-07,2.43341821195397e-09)   3   5   5   5
(0.252190132975594,5.68235475414628e-17)   5   5   5   5
(1.79215648915128e-08,-1.68760347895698e-08)   3   5   7   5
(-0.000827480562748926,-0.015459157079997)   7   5   7   5
(0.0131004698444791,-0.0316504312218683)   9   5   7   5
(8.53015730376989e-08,-3.24958270457877e-08)   3   5   9   5
(0.0131004698444791,-0.0316504312218683)   7   5   9   5
(-0.0133903339974646,-0.0131499544695957)   9   5   9   5
(9.41735678452487e-08,-3.58549253061129e-08)   3   7   1   5
(-0.000271238549476522,0.000591695796753936)   7   7   1   5
(-9.61057447417554e-08,-8.19323441511613e-08)   9   7   1   5
(4.91766845627811e-08,1.10203012535804e-08)   1   7   3   5
(6.33704549132805e-08,6.69703286184536e-08)   5   7   3   5
(-3.78739568872368e-07,2.31858052377847e-10)   7   7   3   5
(-2.24454716404799e-08,-6.87919187967337e-09)   3   7   5   5
(0.236718430109326,2.45950394669404e-17)   7   7   5   5
(-1.98713813436436e-06,8.43039184970728e-06)   9   7   5   5
(0.000229520094014614,-0.00345142610677231)   1   7   7   5
(2.50293379512619e-07,-1.32578882185096e-09)   3   7   7   5
(0.0356620861748206,6.93907050696801e-18)   5   7   7   5
(0.000484779287108731,3.01095458926175e-05)   1   7   9   5
(6.96099306397996e-08,-3.44483143936756e-08)   3   7   9   5
(0.00982596526099844,-0.0048779353220469)   5   7   9   5
(6.19588821612714e-09,-1.40955012486041e-08)   3   9   1   5
(1.28800478285011e-07,2.3722785222129e-08)   7   9   1   5
(-0.000381697457988435,0.00083330217221997)   9   9   1   5
(-3.65020538276973e-09,8.34388009869098e-09)   1   9   3   5
(3.20465245519493e-09,1.31719378242024e-08)   5   9   3   5
(-4.87710753339772e-07,3.26194343365906e-10)   9   9   3   5
(5.85856010731775e-09,2.36046082877212e-08)   3   9   5   5
(-1.98713813433185e-06,-8.43039184972151e-06)   7   9   5   5
(0.253757134181725,6.60886922563848e-18)   9   9   5   5
(0.000574088338505306,0.000703602512920685)   1   9   7   5
(6.96501001783238e-08,3.47204294909887e-08)   3   9   7   5
(0.00982596526099845,0.00487793532204692)   5   9   7   5
(0.000389973735885171,-0.00407353547489998)   1   9   9   5
(2.65293286499755e-07,-1.56708531944582e-09)   3   9   9   5
(0.0378224764930387,-9.54098573531734e-18)   5   9   9   5
(-1.24318524152993e-06,-1.2329195390064e-06)   3   1   1   7
(0.000455746786168019,5.37270351465443e-20)   7   1   1   7
(-0.000214020091077497,5.82957254079196e-05)   9   1   1   7
(-6.52926369987708e-07,-5.30489805056998e-07)   1   1   3   7
(-1.02036486514632e-08,8.68441830272502e-08)   5   1   3   7
(1.76365747741475e-09,2.42582775605632e-08)   7   1   3   7
(3.97322290410821e-09,-4.9310567514275e-09)   9   1   3   7
(1.84578912817337e-07,8.8543401336826e-08)   3   1   5   7
(0.000229520094014614,0.00345142610677231)   7   1   5   7
(0.000574088338505301,-0.000703602512920682)   9   1   5   7
(0.291900499572915,-1.9069081347329e-17)   1   1   7   7
(-1.39956838639845e-09,-4.15804659783516e-09)   3   1   7   7
(-0.000271238549476518,-0.000591695796753937)   5   1   7   7
(-3.6340608939627e-06,1.58855077510342e-05)   1   1   9   7
(1.28800478285835e-07,-2.37227852248982e-08)   5   1   9   7
(2.21408488713367e-07,-1.23285325102618e-06)   1   3   1   7
(-5.80257702025141e-09,2.34425824512798e-08)   5   3   1   7
(1.76365747695976e-09,-2.42582775607348e-08)   7   3   1   7
(3.34449385910451e-09,2.23378066666188e-10)   9   3   1   7
(-5.70177890101151e-07,-5.84943534423978e-07)   3   3   3   7
(6.40302994293912e-05,-5.38535731007496e-19)   7   3   3   7
(-5.00769345715074e-05,2.35859612748732e-05)   9   3   3   7
(-1.36228313390934e-07,2.93918250394359e-07)   1   3   5   7
(1.79215648915346e-08,1.687603478952e-08)   5   3   5   7
(2.50293379509415e-07,1.32578882371343e-09)   7   3   5   7
(6.96501001764946e-08,-3.47204294921614e-08)   9   3   5   7
(-1.39956812959658e-09,4.15804593369906e-09)   1   3   7   7
(0.290589216921938,1.67077599574401e-17)   3   3   7   7
(-3.78739568895599e-07,-2.31858003676819e-10)   5   3   7   7
(2.42654365105449e-08,-2.13640161615134e-08)   7   3   7   7
(2.33266643424409e-09,-3.82067100507621e-09)   9   3   7   7
(-3.65917043389482e-06,1.56720651415863e-05)   3   3   9   7
(-2.5262949725329e-08,4.11171994100517e-08)   7   3   9   7
(1.68226164085143e-08,-6.43275790486288e-08)   9   3   9   7
(4.91766845627811e-08,1.10203012535804e-08)   3   5   1   7
(0.000229520094014614,-0.00345142610677231)   7   5   1   7
(0.000484779287108731,3.01095458926175e-05)   9   5   1   7
(9.41735678452487e-08,-3.58549253061129e-08)   1   5   3   7
(-2.24454716404799e-08,-6.87919187967337e-09)   5   5   3   7
(2.50293379512619e-07,-1.32578882185096e-09)   7   5   3   7
(6.96099306397996e-08,-3.44483143936756e-08)   9   5   3   7
(6.33704549132805e-08,6.69703286184536e-08)   3   5   5   7
(0.0356620861748206,6.93907050696801e-18)   7   5   5   7
(0.00982596526099844,-0.0048779353220469)   9   5   5   7
(-0.000271238549476522,0.000591695796753936)   1   5   7   7
(-3.78739568872368e-07,2.31858052377847e-10)   3   5   7   7
(0.236718430109326,2.45950394669404e-17)   5   5   7   7
(-9.61057447417554e-08,-8.19323441511613e-08)   1   5   9   7
(-1.98713813436436e-06,8.43039184970728e-06)   5   5   9   7
(0.000306849838624051,-7.88656951374012e-05)   1   7   1   7
(7.71341220658441e-09,9.42506595472261e-09)   3   7   1   7
(0.00107897926012147,0.00134244011582646)   5   7   1   7
(7.71341220658441e-09,9.42506595472261e-09)   1   7   3   7
(-2.96766395266863e-05,-5.43830389823733e-05)   3   7   3   7
(-5.18202337035666e-09,1.09557451418079e-07)   5   7   3   7
(2.42654365105436e-08,2.13640161615124e-08)   7   7   3   7
(-5.39711317290595e-08,-1.0834125138695e-08)   9   7   3   7
(0.00107897926012147,0.00134244011582646)   1   7   5   7
(-5.18202337035666e-09,1.09557451418079e-07)   3   7   5   7
(-0.000827480562748978,0.015459157079997)   5   7   5   7
(2.42654365105436e-08,2.13640161615124e-08)   3   7   7   7
(0.226449261870736,8.66450312585729e-19)   7   7   7   7
(-2.77289013842759e-06,2.53718152685844e-05)   9   7   7   7
(-5.39711317290595e-08,-1.0834125138695e-08)   3   7   9   7
(-2.77289013842759e-06,2.53718152685844e-05)   7   7   9   7
(0.00496447934285408,-0.00456323006299749)   9   7   9   7
(-0.000265426444599369,-0.000329184970760064)   1   9   1   7
(1.95469876367775e-08,-9.94777288400337e-09)   3   9   1   7
(0.00279495748996592,-0.00139407625573063)   5   9   1   7
(2.12214699380528e-08,-1.07898512415074e-08)   1   9   3   7
(-1.07526481797987e-05,6.06829573659848e-05)   3   9   3   7
(9.32251025374465e-08,2.21500619326142e-07)   5   9   3   7
(-2.52629497253293e-08,-4.11171994100515e-08)   7   9   3   7
(4.14633364594908e-08,3.92456176749707e-08)   9   9   3   7
(0.00303318401328235,-0.00151390249676613)   1   9   5   7
(9.3317321854956e-08,2.2145420889352e-07)   3   9   5   7
(0.0131004698444791,0.0316504312218683)   5   9   5   7
(2.33266643424573e-09,3.82067100507831e-09)   3   9   7   7
(-2.7728901384114e-06,-2.53718152685883e-05)   7   9   7   7
(0.241493281486017,-8.52624841507242e-18)   9   9   7   7
(5.94734468296825e-08,4.07970809452919e-08)   3   9   9   7
(0.018683842682389,-8.67360497217485e-19)   7   9   9   7
(-9.27659109368873e-07,-9.15840013296885e-06)   9   9   9   7
(2.45946152539742e-07,2.17084445334977e-07)   3   1   1   9
(-0.000214020091077497,-5.82957254079197e-05)   7   1   1   9
(0.000606318066926133,1.35589274660584e-19)   9   1   1   9
(-2.87317016172988e-07,-2.58494935823309e-07)   1   1   3   9
(-3.53899300048635e-09,5.34854031903838e-09)   5   1   3   9
(3.34449385903931e-09,-2.2337806727638e-10)   7   1   3   9
(2.93595891012198e-09,2.86305904797144e-08)   9   1   3   9
(5.58798819739305e-09,-1.15440301150159e-08)   3   1   5   9
(0.000484779287108735,-3.01095458926146e-05)   7   1   5   9
(0.00038997373588517,0.00407353547489998)   9   1   5   9
(-3.63406089401047e-06,-1.58855077510248e-05)   1   1   7   9
(-9.61057447392032e-08,8.19323441522959e-08)   5   1   7   9
(0.324874160137983,-6.33088362480151e-17)   1   1   9   9
(-2.00574890053242e-09,-5.85640656486707e-09)   3   1   9   9
(-0.000381697457988442,-0.000833302172219965)   5   1   9   9
(-5.32007470138559e-07,-8.18661925244671e-08)   1   3   1   9
(-2.08871945632024e-09,7.32578356426461e-09)   5   3   1   9
(3.97322290426364e-09,4.93105675259488e-09)   7   3   1   9
(2.93595890902434e-09,-2.86305904799267e-08)   9   3   1   9
(-4.53948824848456e-08,-1.29816776999984e-07)   3   3   3   9
(-5.00769345715069e-05,-2.35859612748724e-05)   7   3   3   9
(9.91200756273129e-05,-7.11370777302235e-19)   9   3   3   9
(-7.74146518421713e-08,2.73633935380275e-07)   1   3   5   9
(8.53015730376989e-08,3.24958270457876e-08)   5   3   5   9
(6.96099306432051e-08,3.44483143898878e-08)   7   3   5   9
(2.6529328649273e-07,1.56708533499638e-09)   9   3   5   9
(-3.65917043393585e-06,-1.5672065141575e-05)   3   3   7   9
(-5.39711317290597e-08,1.08341251386951e-08)   7   3   7   9
(5.94734468296842e-08,-4.07970809452928e-08)   9   3   7   9
(-2.00574933287476e-09,5.85640772898707e-09)   1   3   9   9
(0.323125871980716,-2.80978600479543e-17)   3   3   9   9
(-4.87710753294286e-07,-3.26194425176147e-10)   5   3   9   9
(4.14633364594913e-08,-3.924561767497e-08)   7   3   9   9
(-3.65020538276973e-09,8.34388009869098e-09)   3   5   1   9
(0.000574088338505306,0.000703602512920685)   7   5   1   9
(0.000389973735885171,-0.00407353547489998)   9   5   1   9
(6.19588821612714e-09,-1.40955012486041e-08)   1   5   3   9
(5.85856010731775e-09,2.36046082877212e-08)   5   5   3   9
(6.96501001783238e-08,3.47204294909887e-08)   7   5   3   9
(2.65293286499755e-07,-1.56708531944582e-09)   9   5   3   9
(3.20465245519493e-09,1.31719378242024e-08)   3   5   5   9
(0.00982596526099845,0.00487793532204692)   7   5   5   9
(0.0378224764930387,-9.54098573531734e-18)   9   5   5   9
(1.28800478285011e-07,2.3722785222129e-08)   1   5   7   9
(-1.98713813433185e-06,-8.43039184972151e-06)   5   5   7   9
(-0.000381697457988436,0.000833302172219969)   1   5   9   9
(-4.87710753339797e-07,3.26194343342839e-10)   3   5   9   9
(0.253757134181724,6.6088692256385e-18)   5   5   9   9
(-0.000265426444599369,-0.000329184970760064)   1   7   1   9
(2.12214699380528e-08,-1.07898512415074e-08)   3   7   1   9
(0.00303318401328235,-0.00151390249676613)   5   7   1   9
(1.95469876367775e-08,-9.94777288400337e-09)   1   7   3   9
(-1.07526481797987e-05,6.06829573659848e-05)   3   7   3   9
(9.3317321854956e-08,2.2145420889352e-07)   5   7   3   9
(2.33266643424573e-09,3.82067100507831e-09)   7   7   3   9
(5.94734468296825e-08,4.07970809452919e-08)   9   7   3   9
(0.00279495748996592,-0.00139407625573063)   1   7   5   9
(9.32251025374465e-08,2.21500619326142e-07)   3   7   5   9
(0.0131004698444791,0.0316504312218683)   5   7   5   9
(-2.52629497253293e-08,-4.11171994100515e-08)   3   7   7   9
(-2.7728901384114e-06,-2.53718152685883e-05)   7   7   7   9
(0.018683842682389,-8.67360497217485e-19)   9   7   7   9
(4.14633364594908e-08,3.92456176749707e-08)   3   7   9   9
(0.241493281486017,-8.52624841507241e-18)   7   7   9   9
(-9.27659109368881e-07,-9.15840013296877e-06)   9   7   9   9
(0.000410963938534067,0.000219770858532201)   1   9   1   9
(-9.07938146247444e-10,1.65179710532099e-08)   3   9   1   9
(-0.000150646169661579,0.00233335259057847)   5   9   1   9
(-9.07938146247444e-10,1.65179710532099e-08)   1   9   3   9
(2.19261954354228e-05,-8.82082537236932e-05)   3   9   3   9
(-9.43203195445677e-08,9.39547902956902e-08)   5   9   3   9
(1.68226164085133e-08,6.43275790486274e-08)   7   9   3   9
(-0.000150646169661579,0.00233335259057847)   1   9   5   9
(-9.43203195445677e-08,9.39547902956902e-08)   3   9   5   9
(-0.0133903339974646,0.0131499544695957)   5   9   5   9
(1.68226164085133e-08,6.43275790486274e-08)   3   9   7   9
(0.00496447934285408,0.00456323006299749)   7   9   7   9
(-9.27659109339739e-07,9.1584001329551e-06)   9   9   7   9
(-9.27659109339692e-07,9.15840013295512e-06)   7   9   9   9
(0.259280955137728,-3.1321868598283e-17)   9   9   9   9
(3.32686729199202e-07,-1.51146588469215e-07)   3   2   1   1
(0.0188042026585889,-0.0279589050503116)   5   2   1   1
(-0.281131480852336,0.0396198243795964)   3   2   3   1
(1.96367539169398e-06,-2.67157670307092e-07)   5   2   3   1
(5.35788939954427e-07,-6.13992113284132e-07)   7   2   3   1
(-4.68683132821301e-07,2.14235074531247e-07)   9   2   3   1
(-7.89332101573015e-08,1.1750184903302e-07)   1   2   5   1
(1.95610619166602e-06,-2.83682341097024e-07)   3   2   5   1
(-0.00245793726882412,-0.000410144455910103)   5   2   5   1
(5.73975908916017e-07,-7.35808099493119e-07)   3   2   7   1
(6.64871714650749e-07,5.31414817449147e-07)   7   2   7   1
(-0.000154667055077012,0.000452303040859163)   9   2   7   1
(-4.70628690289986e-07,2.13112853181072e-07)   3   2   9   1
(-0.000154750632663529,0.000452049597666427)   7   2   9   1
(8.4562630520573e-07,4.79803182458266e-07)   9   2   9   1
(-3.32684255465997e-07,1.51145660464278e-07)   1   4   1   1
(-2.85735595018994e-06,4.0266718893919e-07)   3   4   1   1
(7.30413238422752e-09,1.67285415281256e-08)   5   4   1   1
(3.96478248657665e-07,-3.86149436382004e-07)   7   4   1   1
(5.84702667277409e-07,-2.64689784567079e-07)   9   4   1   1
(0.281133061743007,-0.0396200471409141)   1   4   3   1
(-0.0142643291560957,-0.0354624791905501)   5   4   3   1
(-1.95611735320075e-06,2.83683765384658e-07)   1   4   5   1
(5.01367759689412e-08,1.61274128643794e-07)   3   4   5   1
(9.95902295289721e-08,2.48600410772894e-07)   5   4   5   1
(-2.80014992390205e-08,-3.38311038579169e-08)   7   4   5   1
(-3.40356712672048e-08,2.92529260149842e-09)   9   4   5   1
(-7.98462251013331e-07,1.14917039114869e-06)   1   4   7   1
(1.71032633434455e-07,7.39556635523935e-08)   5   4   7   1
(7.17393873050303e-09,-6.39175015360196e-09)   7   4   7   1
(-1.32602191312753e-08,1.31808893145846e-08)   9   4   7   1
(-4.92216757943485e-07,2.27410616145667e-07)   1   4   9   1
(2.00116963415512e-08,-2.1531523397842e-09)   5   4   9   1
(-1.43857797037369e-08,1.42850358259623e-08)   7   4   9   1
(1.27805529602125e-09,-1.29765088254304e-08)   9   4   9   1
(-0.0188041029273177,0.0279587565610359)   1   6   1   1
(-7.27039322571373e-09,-1.67351390280977e-08)   3   6   1   1
(-4.53932955897114e-07,-7.62440968282446e-08)   5   6   1   1
(-1.96368660760864e-06,2.6715922283683e-07)   1   6   3   1
(0.0142643908359946,0.0354624569756796)   3   6   3   1
(-1.01284369884134e-06,-5.71765569498145e-07)   7   6   3   1
(2.14378815264992e-07,-1.85438821485817e-08)   9   6   3   1
(0.00245792526744455,0.000410142432996661)   1   6   5   1
(-9.95913958225284e-08,-2.48602576085692e-07)   3   6   5   1
(-2.08887490811681e-09,-2.60186408923216e-09)   5   6   5   1
(-1.02722085804153e-07,-3.99757669876978e-08)   3   6   7   1
(0.00102546261888972,-0.000908016097236981)   7   6   7   1
(-0.00188167984095464,0.00184671753334986)   9   6   7   1
(5.61421886129324e-09,-2.28286289565804e-10)   3   6   9   1
(-0.00204184110120321,0.00200380172663708)   7   6   9   1
(0.000188385059807893,-0.00184956530844852)   9   6   9   1
(4.93641319098295e-07,-6.95978287142511e-07)   3   8   1   1
(-5.59513026319285e-09,-2.05234791964955e-07)   7   8   1   1
(8.25098129375704e-06,2.92312079878209e-05)   9   8   1   1
(-6.22041243202162e-07,5.7996736767278e-07)   1   8   3   1
(5.82897946587255e-07,2.19417061888662e-07)   5   8   3   1
(-5.88026071345853e-08,-3.14390638109251e-08)   3   8   5   1
(-1.66776055773598e-09,-3.88465745601656e-09)   7   8   5   1
(2.0128536482657e-07,-1.59939353438108e-07)   9   8   5   1
(-6.60824792522387e-07,-4.55595229181884e-07)   1   8   7   1
(-7.17308315756653e-09,6.39050784115994e-09)   3   8   7   1
(-0.00102531359353151,0.000907841707800541)   5   8   7   1
(0.000154159708895517,-0.000450322974151428)   1   8   9   1
(1.4382671045521e-08,-1.42813516387235e-08)   3   8   9   1
(0.00204141782739793,-0.00200338691660871)   5   8   9   1
(5.79731851376192e-07,-2.67559334902183e-07)   3  10   1   1
(-8.58440942198146e-06,-2.82576233522798e-05)   7  10   1   1