 &FCI NORB= 10,NELEC= 6,ORBSYM= 1, 1, 1, 1, 1, 1, 1, 1, 1, 1, 
 ISYM= 0 ,
 TREL=.TRUE.
 &END
(1.03132034697493,1.70382320604996e-16)   1   1   1   1
(0.0547088503535688,1.06507384049347e-12)   5   1   1   1
(0.569273034646384,-0.00142900057810009)   3   1   3   1
(1.36442278213982e-07,-1.31299964507511e-06)   7   1   3   1
(-4.75084523968147e-08,-3.14356255608703e-07)   9   1   3   1
(0.0547088503535688,1.06507384049347e-12)   1   1   5   1
(0.00527553160038226,2.05366361230781e-13)   5   1   5   1
(1.36442278213982e-07,-1.31299964507511e-06)   3   1   7   1
(0.00063815715656525,0.000168844999775293)   7   1   7   1
(0.000653918617725262,-2.4519211923599e-05)   9   1   7   1
(-4.75084523968147e-08,-3.14356255608703e-07)   3   1   9   1
(0.000653918617725262,-2.4519211923599e-05)   7   1   9   1
(0.000625259956387842,-0.000212529014546367)   9   1   9   1
(1.04956720376666,6.10035845215834e-16)   3   3   1   1
(4.33918866701429e-08,-3.75835991293235e-07)   7   3   1   1
(5.35146647933012e-08,3.90949870514115e-07)   9   3   1   1
(0.569273191189632,7.73361531244909e-16)   1   3   3   1
(0.0589992083882524,-2.7693930232019e-12)   5   3   3   1
(0.0572031767411205,1.1136421633187e-12)   3   3   5   1
(6.215198383313e-09,-5.51369400476942e-08)   7   3   5   1
(3.02441145676323e-09,2.24023799688184e-08)   9   3   5   1
(1.61163492956604e-07,-1.4947980749738e-06)   1   3   7   1
(1.61959191825713e-08,-1.51048296507754e-07)   5   3   7   1
(-4.76594308289273e-08,-3.31209886421368e-07)   1   3   9   1
(-2.28329410098458e-09,-1.51360582298506e-08)   5   3   9   1
(0.0547088503535688,-1.06501870641596e-12)   1   5   1   1
(0.323810590785533,-1.48043650395143e-17)   5   5   1   1
(0.0589993593281688,-0.000148101371804128)   3   5   3   1
(1.05776981049781e-07,-1.0093078114348e-06)   7   5   3   1
(-2.30245757223874e-08,-1.49394173922415e-07)   9   5   3   1
(0.00527550259213861,2.09148113033475e-18)   1   5   5   1
(0.00106154487844536,2.07033236194739e-14)   5   5   5   1
(1.10991755095509e-08,-1.06510553823507e-07)   3   5   7   1
(-0.00405492685941257,-0.00107285727971325)   7   5   7   1
(-0.00415589135083142,0.000155828431923217)   9   5   7   1
(-9.7859119653653e-10,-5.76990588991115e-09)   3   5   9   1
(-0.00415675794101749,0.000155861493367073)   7   5   9   1
(-0.00397496634275577,0.00135111153208031)   9   5   9   1
(4.3391886670142e-08,3.75835991293238e-07)   3   7   1   1
(0.334439196225623,-5.93468210737174e-17)   7   7   1   1
(-6.507657708527e-07,1.97045841683703e-07)   9   7   1   1
(1.61163492956597e-07,1.49479807497381e-06)   1   7   3   1
(6.4477302433152e-08,6.03199615060185e-07)   5   7   3   1
(5.83895199110844e-09,5.17067870038617e-08)   3   7   5   1
(0.00125495299083401,2.49566738233594e-14)   7   7   5   1
(-1.87194046043171e-08,5.69363011410039e-09)   9   7   5   1
(0.000657107462758162,-1.88155568612564e-19)   1   7   7   1
(-0.00419437692811868,9.95346726778902e-11)   5   7   7   1
(0.000623806754074062,-0.000188627370756107)   1   7   9   1
(-0.00397999702990441,0.00120347513220424)   5   7   9   1
(5.35146647933011e-08,-3.90949870514117e-07)   3   9   1   1
(-6.50765770819986e-07,-1.97045841624278e-07)   7   9   1   1
(0.334437073415651,1.23743405278848e-17)   9   9   1   1
(-4.76594308289282e-08,3.31209886421371e-07)   1   9   3   1
(-7.50918931205509e-09,4.89720946910744e-08)   5   9   3   1
(3.13524328894082e-09,-2.31741535493373e-08)   3   9   5   1
(-1.87192866770315e-08,-5.69359373108222e-09)   7   9   5   1
(0.00125483263789456,2.49414884311838e-14)   9   9   5   1
(0.000623806754074062,0.000188627370756106)   1   9   7   1
(-0.00398032151202736,-0.00120357309857156)   5   9   7   1
(0.000658429298332358,-2.66986501374327e-20)   1   9   9   1
(-0.00419998714389851,-4.2042195084575e-11)   5   9   9   1
(0.569273191189632,7.73361531244909e-16)   3   1   1   3
(1.61163492956604e-07,-1.4947980749738e-06)   7   1   1   3
(-4.76594308289273e-08,-3.31209886421368e-07)   9   1   1   3
(1.04956720376666,6.10035845215834e-16)   1   1   3   3
(0.0572031767411205,1.1136421633187e-12)   5   1   3   3
(0.0589992083882524,-2.7693930232019e-12)   3   1   5   3
(1.61959191825713e-08,-1.51048296507754e-07)   7   1   5   3
(-2.28329410098458e-09,-1.51360582298506e-08)   9   1   5   3
(4.33918866701429e-08,-3.75835991293235e-07)   1   1   7   3
(6.215198383313e-09,-5.51369400476942e-08)   5   1   7   3
(5.35146647933012e-08,3.90949870514115e-07)   1   1   9   3
(3.02441145676323e-09,2.24023799688184e-08)   5   1   9   3
(0.569273034646381,0.00142900057810163)   1   3   1   3
(0.0589993593281682,0.000148101371804033)   5   3   1   3
(1.06950461080333,1.11067956702989e-15)   3   3   3   3
(5.45162900033037e-08,-4.79998747828482e-07)   7   3   3   3
(4.68807584554748e-08,3.43088947468723e-07)   9   3   3   3
(0.0589993593281682,0.000148101371804033)   1   3   5   3
(0.0075445140879316,1.89383898260053e-05)   5   3   5   3
(5.45162900033037e-08,-4.79998747828482e-07)   3   3   7   3
(0.000225959352684205,6.03925767713714e-05)   7   3   7   3
(0.000231457834850631,-8.22199817852863e-06)   9   3   7   3
(4.68807584554748e-08,3.43088947468723e-07)   3   3   9   3
(0.000231457834850631,-8.22199817852863e-06)   7   3   9   3
(0.000221606437436312,-7.47048301659058e-05)   9   3   9   3
(0.0589992083882524,2.76929933446895e-12)   3   5   1   3
(6.44773024331473e-08,-6.03199615059988e-07)   7   5   1   3
(-7.50918931205461e-09,-4.89720946910686e-08)   9   5   1   3
(0.0572031767411205,-1.11347018271624e-12)   1   5   3   3
(0.322555995334732,-1.05264111613521e-16)   5   5   3   3
(0.00754443670549198,-5.93550364898257e-17)   3   5   5   3
(-5.95663881153294e-09,5.45993497059722e-08)   7   5   5   3
(3.35871937353585e-09,2.37803878948628e-08)   9   5   5   3
(5.83895199110862e-09,-5.17067870038612e-08)   1   5   7   3
(-3.58553425940873e-09,3.44202925286171e-08)   5   5   7   3
(3.13524328894078e-09,2.31741535493368e-08)   1   5   9   3
(7.47250511001757e-09,5.38026820112734e-08)   5   5   9   3
(1.36442278213974e-07,1.31299964507512e-06)   1   7   1   3
(1.05776981049784e-07,1.00930781143499e-06)   5   7   1   3
(5.45162900033007e-08,4.79998747828485e-07)   3   7   3   3
(0.332583239599248,-1.60553649094561e-16)   7   7   3   3
(-6.45279197798267e-07,1.95419049707488e-07)   9   7   3   3
(1.10991755095501e-08,1.06510553823509e-07)   1   7   5   3
(6.44252325506249e-09,6.17934663463734e-08)   5   7   5   3
(0.000232589174015083,-2.25919501692058e-18)   3   7   7   3
(-3.94154536108736e-10,1.71074101288341e-09)   7   7   7   3
(8.55621014110127e-09,3.86522618169871e-08)   9   7   7   3
(0.000220703709061199,-6.67418013907215e-05)   3   7   9   3
(-7.43293177174756e-10,-3.16276703556827e-09)   7   7   9   3
(2.61608383706456e-08,5.70332302193485e-08)   9   7   9   3
(-4.75084523968153e-08,3.14356255608704e-07)   1   9   1   3
(-2.30245757223879e-08,1.49394173922422e-07)   5   9   1   3
(4.68807584554747e-08,-3.43088947468726e-07)   3   9   3   3
(-6.45279197783633e-07,-1.95419049636917e-07)   7   9   3   3
(0.332581086234088,-8.76662601461909e-17)   9   9   3   3
(-9.78591196536774e-10,5.76990588991166e-09)   1   9   5   3
(-5.25370945883566e-09,3.5547589309041e-08)   5   9   5   3
(0.000220703709061205,6.67418013907212e-05)   3   9   7   3
(-2.04699365801578e-08,4.89171744561117e-08)   7   9   7   3
(4.69186824701757e-10,2.08135824696579e-09)   9   9   7   3
(0.000233212995649276,1.8287712232871e-19)   3   9   9   3
(-1.37871641146225e-08,7.81076853671759e-08)   7   9   9   3
(0.0547088503535688,-1.06501870641596e-12)   1   1   1   5
(0.00527550259213861,2.09148113033475e-18)   5   1   1   5
(0.0589993593281688,-0.000148101371804128)   3   1   3   5
(1.10991755095509e-08,-1.06510553823507e-07)   7   1   3   5
(-9.7859119653653e-10,-5.76990588991115e-09)   9   1   3   5
(0.323810590785533,-1.48043650395143e-17)   1   1   5   5
(0.00106154487844536,2.07033236194739e-14)   5   1   5   5
(1.05776981049781e-07,-1.0093078114348e-06)   3   1   7   5
(-0.00405492685941257,-0.00107285727971325)   7   1   7   5
(-0.00415675794101749,0.000155861493367073)   9   1   7   5
(-2.30245757223874e-08,-1.49394173922415e-07)   3   1   9   5
(-0.00415589135083142,0.000155828431923217)   7   1   9   5
(-0.00397496634275577,0.00135111153208031)   9   1   9   5
(0.0572031767411205,-1.11347018271624e-12)   3   3   1   5
(5.83895199110862e-09,-5.17067870038612e-08)   7   3   1   5
(3.13524328894078e-09,2.31741535493368e-08)   9   3   1   5
(0.0589992083882524,2.76929933446895e-12)   1   3   3   5
(0.00754443670549198,-5.93550364898257e-17)   5   3   3   5
(0.322555995334732,-1.05264111613521e-16)   3   3   5   5
(-3.58553425940873e-09,3.44202925286171e-08)   7   3   5   5
(7.47250511001757e-09,5.38026820112734e-08)   9   3   5   5
(6.44773024331473e-08,-6.03199615059988e-07)   1   3   7   5
(-5.95663881153294e-09,5.45993497059722e-08)   5   3   7   5
(-7.50918931205461e-09,-4.89720946910686e-08)   1   3   9   5
(3.35871937353585e-09,2.37803878948628e-08)   5   3   9   5
(0.00527553160038226,-2.05362178106247e-13)   1   5   1   5
(0.00106154487844536,-2.07078680414831e-14)   5   5   1   5
(0.00754451408793173,-1.89383898261243e-05)   3   5   3   5
(6.44252325506263e-09,-6.17934663463277e-08)   7   5   3   5
(-5.25370945883555e-09,-3.55475893090396e-08)   9   5   3   5
(0.00106154487844536,-2.07078680414831e-14)   1   5   5   5
(0.256261995982568,2.53828486162831e-17)   5   5   5   5
(6.44252325506263e-09,-6.17934663463277e-08)   3   5   7   5
(0.0288913347300952,0.00764410174154859)   7   5   7   5
(0.0296149245614559,-0.00111043644469903)   9   5   7   5
(-5.25370945883555e-09,-3.55475893090396e-08)   3   5   9   5
(0.0296149245614559,-0.00111043644469903)   7   5   9   5
(0.0283235905808549,-0.00962733471830331)   9   5   9   5
(6.21519838331294e-09,5.51369400476945e-08)   3   7   1   5
(0.00125495299083401,-2.49808344772627e-14)   7   7   1   5
(-1.87192866702232e-08,5.69359373377995e-09)   9   7   1   5
(1.61959191825705e-08,1.51048296507756e-07)   1   7   3   5
(-5.95663881153317e-09,-5.45993497059282e-08)   5   7   3   5
(-3.58553425940867e-09,-3.44202925286166e-08)   3   7   5   5
(0.261018440902717,3.62741812974724e-17)   7   7   5   5
(-2.31362235397481e-07,6.98992331636382e-08)   9   7   5   5
(-0.00419437692811868,-9.95346714856164e-11)   1   7   7   5
(0.0298901337096482,2.16840147568826e-18)   5   7   7   5
(-0.00398032151202736,0.00120357309857157)   1   7   9   5
(0.0283606005475288,-0.00857570177866171)   5   7   9   5
(3.02441145676329e-09,-2.24023799688185e-08)   3   9   1   5
(-1.87194046110888e-08,-5.69363011138884e-09)   7   9   1   5
(0.00125483263789456,-2.49485756020164e-14)   9   9   1   5
(-2.28329410098472e-09,1.5136058229851e-08)   1   9   3   5
(3.35871937353574e-09,-2.37803878948613e-08)   5   9   3   5
(7.47250511001753e-09,-5.3802682011273e-08)   3   9   5   5
(-2.31362235426085e-07,-6.98992330399738e-08)   7   9   5   5
(0.261018060845188,1.41664103491254e-17)   9   9   5   5
(-0.00397999702990441,-0.00120347513220424)   1   9   7   5
(0.0283606005475289,0.00857570177866172)   5   9   7   5
(-0.0041999871438985,4.20421959518776e-11)   1   9   9   5
(0.029924380203567,-8.67362978759322e-18)   5   9   9   5
(1.61163492956597e-07,1.49479807497381e-06)   3   1   1   7
(0.000657107462758162,-1.88155568612564e-19)   7   1   1   7
(0.000623806754074062,-0.000188627370756107)   9   1   1   7
(4.3391886670142e-08,3.75835991293238e-07)   1   1   3   7
(5.83895199110844e-09,5.17067870038617e-08)   5   1   3   7
(6.4477302433152e-08,6.03199615060185e-07)   3   1   5   7
(-0.00419437692811868,9.95346726778902e-11)   7   1   5   7
(-0.00397999702990441,0.00120347513220424)   9   1   5   7
(0.334439196225623,-5.93468210737174e-17)   1   1   7   7
(0.00125495299083401,2.49566738233594e-14)   5   1   7   7
(-6.507657708527e-07,1.97045841683703e-07)   1   1   9   7
(-1.87194046043171e-08,5.69363011410039e-09)   5   1   9   7
(1.36442278213974e-07,1.31299964507512e-06)   1   3   1   7
(1.10991755095501e-08,1.06510553823509e-07)   5   3   1   7
(5.45162900033007e-08,4.79998747828485e-07)   3   3   3   7
(0.000232589174015083,-2.25919501692058e-18)   7   3   3   7
(0.000220703709061199,-6.67418013907215e-05)   9   3   3   7
(1.05776981049784e-07,1.00930781143499e-06)   1   3   5   7
(6.44252325506249e-09,6.17934663463734e-08)   5   3   5   7
(0.332583239599248,-1.60553649094561e-16)   3   3   7   7
(-3.94154536108736e-10,1.71074101288341e-09)   7   3   7   7
(-7.43293177174756e-10,-3.16276703556827e-09)   9   3   7   7
(-6.45279197798267e-07,1.95419049707488e-07)   3   3   9   7
(8.55621014110127e-09,3.86522618169871e-08)   7   3   9   7
(2.61608383706456e-08,5.70332302193485e-08)   9   3   9   7
(1.61959191825705e-08,1.51048296507756e-07)   3   5   1   7
(-0.00419437692811868,-9.95346714856164e-11)   7   5   1   7
(-0.00398032151202736,0.00120357309857157)   9   5   1   7
(6.21519838331294e-09,5.51369400476945e-08)   1   5   3   7
(-3.58553425940867e-09,-3.44202925286166e-08)   5   5   3   7
(-5.95663881153317e-09,-5.45993497059282e-08)   3   5   5   7
(0.0298901337096482,2.16840147568826e-18)   7   5   5   7
(0.0283606005475288,-0.00857570177866171)   9   5   5   7
(0.00125495299083401,-2.49808344772627e-14)   1   5   7   7
(0.261018440902717,3.62741812974724e-17)   5   5   7   7
(-1.87192866702232e-08,5.69359373377995e-09)   1   5   9   7
(-2.31362235397481e-07,6.98992331636382e-08)   5   5   9   7
(0.000638157156565249,-0.000168844999775293)   1   7   1   7
(-0.00405492685941256,0.00107285727971325)   5   7   1   7
(0.0002259593526842,-6.03925767713746e-05)   3   7   3   7
(-3.94154536108304e-10,-1.71074101288289e-09)   7   7   3   7
(-2.04699365801576e-08,-4.89171744561113e-08)   9   7   3   7
(-0.00405492685941256,0.00107285727971325)   1   7   5   7
(0.0288913347300952,-0.00764410174154857)   5   7   5   7
(-3.94154536108304e-10,-1.71074101288289e-09)   3   7   7   7
(0.268655509028424,5.09874927978358e-17)   7   7   7   7
(-7.74821928823197e-06,2.26782806431677e-06)   9   7   7   7
(-2.04699365801576e-08,-4.89171744561113e-08)   3   7   9   7
(-7.74821928823197e-06,2.26782806431677e-06)   7   7   9   7
(0.0114100409726377,-0.00757876022997876)   9   7   9   7
(0.000653918617725262,2.45192119235988e-05)   1   9   1   7
(-0.00415589135083142,-0.000155828431923214)   5   9   1   7
(0.000231457834850633,8.22199817852679e-06)   3   9   3   7
(8.55621014110105e-09,-3.86522618169868e-08)   7   9   3   7
(4.69186824701893e-10,-2.08135824696553e-09)   9   9   3   7
(-0.00415675794101749,-0.000155861493367074)   1   9   5   7
(0.029614924561456,0.00111043644469903)   5   9   5   7
(-7.4329317717471e-10,3.16276703556909e-09)   3   9   7   7
(-7.7482192882536e-06,-2.26782806419782e-06)   7   9   7   7
(0.268655171074529,3.01239842459836e-17)   9   9   7   7
(-1.37871641146224e-08,-7.81076853671757e-08)   3   9   9   7
(0.0137124744822298,4.33725743542433e-19)   7   9   9   7
(7.69805978108827e-06,-2.25291565750361e-06)   9   9   9   7
(-4.76594308289282e-08,3.31209886421371e-07)   3   1   1   9
(0.000623806754074062,0.000188627370756106)   7   1   1   9
(0.000658429298332358,-2.66986501374327e-20)   9   1   1   9
(5.35146647933011e-08,-3.90949870514117e-07)   1   1   3   9
(3.13524328894082e-09,-2.31741535493373e-08)   5   1   3   9
(-7.50918931205509e-09,4.89720946910744e-08)   3   1   5   9
(-0.00398032151202736,-0.00120357309857156)   7   1   5   9
(-0.00419998714389851,-4.2042195084575e-11)   9   1   5   9
(-6.50765770819986e-07,-1.97045841624278e-07)   1   1   7   9
(-1.87192866770315e-08,-5.69359373108222e-09)   5   1   7   9
(0.334437073415651,1.23743405278847e-17)   1   1   9   9
(0.00125483263789456,2.49414884311886e-14)   5   1   9   9
(-4.75084523968153e-08,3.14356255608704e-07)   1   3   1   9
(-9.78591196536774e-10,5.76990588991166e-09)   5   3   1   9
(4.68807584554747e-08,-3.43088947468726e-07)   3   3   3   9
(0.000220703709061205,6.67418013907212e-05)   7   3   3   9
(0.000233212995649276,1.8287712232871e-19)   9   3   3   9
(-2.30245757223879e-08,1.49394173922422e-07)   1   3   5   9
(-5.25370945883566e-09,3.5547589309041e-08)   5   3   5   9
(-6.45279197783633e-07,-1.95419049636917e-07)   3   3   7   9
(-2.04699365801578e-08,4.89171744561117e-08)   7   3   7   9
(-1.37871641146225e-08,7.81076853671759e-08)   9   3   7   9
(0.332581086234088,-8.76662601461909e-17)   3   3   9   9
(4.69186824701755e-10,2.08135824696579e-09)   7   3   9   9
(-2.28329410098472e-09,1.5136058229851e-08)   3   5   1   9
(-0.00397999702990441,-0.00120347513220424)   7   5   1   9
(-0.0041999871438985,4.20421959518776e-11)   9   5   1   9
(3.02441145676329e-09,-2.24023799688185e-08)   1   5   3   9
(7.47250511001753e-09,-5.3802682011273e-08)   5   5   3   9
(3.35871937353574e-09,-2.37803878948613e-08)   3   5   5   9
(0.0283606005475289,0.00857570177866172)   7   5   5   9
(0.029924380203567,-8.67362978759322e-18)   9   5   5   9
(-1.87194046110888e-08,-5.69363011138884e-09)   1   5   7   9
(-2.31362235426085e-07,-6.98992330399738e-08)   5   5   7   9
(0.00125483263789456,-2.49485756020176e-14)   1   5   9   9
(0.261018060845188,1.41664103491253e-17)   5   5   9   9
(0.000653918617725262,2.45192119235988e-05)   1   7   1   9
(-0.00415675794101749,-0.000155861493367074)   5   7   1   9
(0.000231457834850633,8.22199817852679e-06)   3   7   3   9
(-7.4329317717471e-10,3.16276703556909e-09)   7   7   3   9
(-1.37871641146224e-08,-7.81076853671757e-08)   9   7   3   9
(-0.00415589135083142,-0.000155828431923214)   1   7   5   9
(0.029614924561456,0.00111043644469903)   5   7   5   9
(8.55621014110105e-09,-3.86522618169868e-08)   3   7   7   9
(-7.7482192882536e-06,-2.26782806419782e-06)   7   7   7   9
(0.0137124744822298,4.33725743542433e-19)   9   7   7   9
(4.69186824701892e-10,-2.08135824696551e-09)   3   7   9   9
(0.268655171074529,3.01239842459836e-17)   7   7   9   9
(7.69805978108813e-06,-2.2529156575036e-06)   9   7   9   9
(0.000625259956387841,0.000212529014546367)   1   9   1   9
(-0.00397496634275577,-0.00135111153208031)   5   9   1   9
(0.000221606437436317,7.47048301659081e-05)   3   9   3   9
(2.61608383706453e-08,-5.70332302193482e-08)   7   9   3   9
(-0.00397496634275577,-0.00135111153208031)   1   9   5   9
(0.028323590580855,0.00962733471830331)   5   9   5   9
(2.61608383706453e-08,-5.70332302193482e-08)   3   9   7   9
(0.0114100409726377,0.00757876022997876)   7   9   7   9
(7.69805978106614e-06,2.25291565762422e-06)   9   9   7   9
(7.69805978106601e-06,2.25291565762421e-06)   7   9   9   9
(0.268654717558421,9.26203351384885e-18)   9   9   9   9
(6.86699451203157e-09,1.62260328556796e-08)   5   2   1   1
(-0.000831609857144013,-0.00165188663875895)   3   2   3   1
(-1.88255923999555e-06,-2.49425511855583e-07)   7   2   3   1
(-5.35457681748101e-07,9.21018065235387e-08)   9   2   3   1
(6.61942215397114e-10,1.56410453473712e-09)   5   2   5   1
(-5.76020836065319e-07,-7.51836761204307e-08)   3   2   7   1
(-7.90607627496663e-07,-3.64884745151751e-07)   7   2   7   1
(-1.21101800042515e-05,8.91610221508688e-05)   9   2   7   1
(-5.35036321189936e-07,9.27837254645317e-08)   3   2   9   1
(-1.2109625103325e-05,8.91610883646917e-05)   7   2   9   1
(-8.57523533413678e-07,1.99829905458629e-07)   9   2   9   1
(-8.45179448926323e-09,-1.67884091060555e-08)   3   4   1   1
(-2.4524084526721e-06,-3.2603223216922e-07)   7   4   1   1
(6.64126085923428e-07,-1.1701669816302e-07)   9   4   1   1
(0.000831614534694511,0.00165189593011488)   1   4   3   1
(8.61955194606422e-05,0.000171219058515712)   5   4   3   1
(-2.28893413626563e-07,-3.04589128937732e-08)   7   4   5   1
(3.80398836062643e-08,-6.75456592072592e-09)   9   4   5   1
(-5.99131433694158e-07,-8.17850865231106e-08)   1   4   7   1
(-1.99633305164836e-08,-2.8827326236594e-09)   5   4   7   1
(-5.62956255238393e-07,9.76155123637924e-08)   1   4   9   1
(-2.56938976850272e-08,4.45883306326398e-09)   5   4   9   1
(-6.86695883857708e-09,-1.62259485520725e-08)   1   6   1   1
(-8.6195242098853e-05,-0.000171218507575076)   3   6   3   1
(-2.46584060305169e-06,-3.27037948755597e-07)   7   6   3   1
(-2.54704044057972e-07,4.28700807294471e-08)   9   6   3   1
(-6.61939398681452e-10,-1.56409787365031e-09)   1   6   5   1
(-3.60174447368437e-09,-3.22780767496988e-10)   3   6   7   1
(4.97135941293945e-06,2.54260198586147e-06)   7   6   7   1
(7.69636956413965e-05,-0.000566649764137747)   9   6   7   1
(-9.78718533829273e-09,1.70220302341036e-09)   3   6   9   1
(7.69793455893178e-05,-0.000566767969351162)   7   6   9   1
(5.45133624494273e-06,-1.26911046388129e-06)   9   6   9   1
(8.88318254043631e-07,1.1948919788913e-07)   3   8   1   1
(3.75503129382145e-08,-1.58270283597154e-07)   7   8   1   1
(-1.48358534875056e-08,9.2604600205507e-08)   9   8   1   1
(3.60695711907322e-06,4.78991394833749e-07)   1   8   3   1
(1.45755210746617e-06,1.93342953700033e-07)   5   8   3   1
(1.23138373616375e-07,1.64853143464743e-08)   3   8   5   1
(1.17990893237927e-09,-4.96333485691491e-09)   7   8   5   1
(-4.51271249704421e-10,2.66140612165271e-09)   9   8   5   1
(7.68678685430123e-07,4.41180514283928e-07)   1   8   7   1
(-4.95888294135825e-06,-2.59332541110569e-06)   5   8   7   1
(1.20636563246871e-05,-8.88175502877775e-05)   1   8   9   1
(-7.69668327956416e-05,0.000566670571706709)   5   8   9   1
(6.65203862061635e-07,-1.15272219687589e-07)   3  10   1   1
(-1.0446330184887e-08,9.2650147304603e-08)   7  10   1   1
(-5.61555522517839e-07,9.98554216821963e-08)   1  10   3   1
(-8.24925788889279e-08,1.52193705295078e-08)   5  10   3   1
(3.94656812995015e-08,-6.79750836862976e-09)   3  10   5   1
(-2.77316248019376e-10,2.67498894175859e-09)   7  10   5   1
(1.20629110483221e-05,-8.88176451561938e-05)   1  10   7   1
(-7.69721355856648e-05,0.000566716889023613)   5  10   7   1
(8.54220579622209e-07,-1.99060147101767e-07)   1  10   9   1
(-5.45119096213883e-06,1.26907645126844e-06)   5  10   9   1
(-0.000827463757018384,-0.00165397825455746)   3   2   1   3
(-2.26314604705162e-06,-3.06494269907322e-07)   7   2   1   3
(-5.63600701311537e-07,9.62967703199651e-08)   9   2   1   3
(6.73320386683723e-09,1.68095726849432e-08)   1   2   3   3
(7.42225254776834e-09,1.77606469526201e-08)   5   2   3   3
(-8.57576767355711e-05,-0.000171417397181527)   3   2   5   3
(-3.12889141978653e-07,-4.23335255986641e-08)   7   2   5   3
(-2.57948848482766e-08,4.28493210696231e-09)   9   2   5   3
(7.38922780448863e-07,1.00365423954322e-07)   1   2   7   3
(4.68610138256088e-08,6.36415146714464e-09)   5   2   7   3
(6.65306104514359e-07,-1.14794380983224e-07)   1   2   9   3
(3.81383402861397e-08,-6.57786459907142e-09)   5   2   9   3
(0.000827462199636209,0.00165396895148805)   1   4   1   3
(8.57655484871426e-05,0.000171434336557735)   5   4   1   3
(-1.8606261772655e-09,4.68684510630434e-12)   3   4   3   3
(-2.38652536448257e-06,-3.17447759118714e-07)   7   4   3   3
(5.75105038378746e-07,-1.01541883043121e-07)   9   4   3   3
(8.57581460366645e-05,0.000171416845290248)   1   4   5   3
(1.09672309690297e-05,2.19220733879134e-05)   5   4   5   3
(5.76039862717956e-07,7.75770069034095e-08)   3   4   7   3
(3.75756698038999e-07,4.96740686312311e-08)   7   4   7   3
(-4.23797120537116e-06,3.2925546234646e-05)   9   4   7   3
(5.76079621174863e-07,-9.99760173045122e-08)   3   4   9   3
(-4.23759796489975e-06,3.29255916194636e-05)   7   4   9   3
(3.39116436194568e-07,-1.47191593684282e-07)   9   4   9   3
(-8.57650790099136e-05,-0.000171434888032723)   3   6   1   3
(-1.85160108129942e-06,-2.5017645396107e-07)   7   6   1   3
(-8.36184744602007e-08,1.33852947385609e-08)   9   6   1   3
(-6.93745708224444e-09,-1.61699353257658e-08)   1   6   3   3
(1.61464168890236e-09,2.95482439728191e-09)   5   6   3   3
(-1.09670670150355e-05,-2.19219667298629e-05)   3   6   5   3
(8.23245078896191e-09,1.15332587306553e-09)   7   6   5   3
(4.04536261764678e-08,-7.00579785920272e-09)   9   6   5   3
(4.82740116791108e-08,6.55599604393246e-09)   1   6   7   3
(9.36441395561005e-08,1.27182066850403e-08)   5   6   7   3
(3.94499100048391e-08,-6.80419262961072e-09)   1   6   9   3
(9.15229013333999e-08,-1.57964508277266e-08)   5   6   9   3
(3.16447246281594e-06,4.2757582281565e-07)   1   8   1   3
(2.43823507527313e-06,3.2980544957603e-07)   5   8   1   3
(1.15073591901243e-06,1.54278542203837e-07)   3   8   3   3
(3.60806627747049e-08,-1.58581836954094e-07)   7   8   3   3
(-1.45948996385644e-08,9.5815680545587e-08)   9   8   3   3
(2.57039102580739e-07,3.47565961080856e-08)   1   8   5   3
(1.48901463038294e-07,2.01064200128356e-08)   5   8   5   3
(-3.82954388136258e-07,-9.50247415774129e-09)   3   8   7   3
(7.42429516261693e-09,3.24907326648447e-09)   7   8   7   3
(1.51797000942264e-07,1.59027158634638e-08)   9   8   7   3
(4.22049829241721e-06,-3.27893292667233e-05)   3   8   9   3
(-1.2590181151626e-08,-1.11693699212123e-09)   7   8   9   3
(1.47933804570289e-07,-2.90413104261524e-08)   9   8   9   3
(-5.33906768854717e-07,9.43310520938728e-08)   1  10   1   3
(-2.53106683754663e-07,4.52835787063305e-08)   5  10   1   3
(5.76247661349406e-07,-9.96932041732295e-08)   3  10   3   3
(-1.01980550807961e-08,9.58714417553587e-08)   7  10   3   3
(3.83482594539867e-09,-1.39810260413457e-09)   9  10   3   3
(-9.7038534292696e-09,1.83040016390022e-09)   1  10   5   3
(-6.04925555927086e-08,1.05698865461406e-08)   5  10   5   3
(4.22003857351207e-06,-3.27893870813758e-05)   3  10   7   3
(2.03540877358047e-07,2.13218057789429e-08)   7  10   7   3
(-2.45013466564163e-08,4.99802921897882e-09)   9  10   7   3
(-3.3835875270089e-07,1.46802375234789e-07)   3  10   9   3
(1.91204384034149e-07,-3.75264974568828e-08)   7  10   9   3
(6.61940785876264e-10,1.56409788248987e-09)   5   2   1   5
(-8.61877958491793e-05,-0.000171201035112579)   3   2   3   5
(-2.39580871618702e-07,-3.17890223423736e-08)   7   2   3   5
(-9.86448849825298e-09,1.57778474529185e-09)   9   2   3   5
(-1.37684139451015e-07,-1.66668698623316e-08)   3   2   7   5
(4.97199520829511e-06,2.54019659252879e-06)   7   2   7   5
(7.69787030024085e-05,-0.00056676788272026)   9   2   7   5
(-2.53919156777666e-07,4.41184082057239e-08)   3   2   9   5
(7.69622561691064e-05,-0.000566649771208363)   7   2   9   5
(5.45053402187906e-06,-1.2714649678645e-06)   9   2   9   5
(-2.23477345873126e-07,-2.97351387730467e-08)   7   4   1   5
(3.93525861891572e-08,-6.97979455983896e-09)   9   4   1   5
(8.61880731874369e-05,0.000171201586149135)   1   4   3   5
(1.10221165398699e-05,2.18943678605337e-05)   5   4   3   5
(-1.48566466584371e-09,-2.95110702893672e-09)   3   4   5   5
(-1.1260523154124e-07,-1.48955785158028e-08)   7   4   5   5
(9.14378066391083e-08,-1.59784499167115e-08)   9   4   5   5
(5.13662451629246e-08,5.87832474214101e-09)   1   4   7   5
(5.87986240868086e-08,7.88571674908646e-09)   5   4   7   5
(-8.29660619903666e-08,1.44663877659358e-08)   1   4   9   5
(4.04619380835426e-08,-7.00478261933404e-09)   5   4   9   5
(-6.61940828475783e-10,-1.56410452610074e-09)   1   6   1   5
(-1.10221701758607e-05,-2.18944743842714e-05)   3   6   3   5
(-5.48522273535839e-08,-7.23816860133605e-09)   7   6   3   5
(-6.05502518331238e-08,1.0501709993776e-08)   9   6   3   5
(-4.98682913775835e-08,-6.58012701288322e-09)   3   6   7   5
(-3.54070274252984e-05,-1.81964006616271e-05)   7   6   7   5
(-0.000548439342298634,0.00403794312155909)   9   6   7   5
(-6.05465731041843e-08,1.05062047165961e-08)   3   6   9   5
(-0.000548439277726763,0.00403794322581069)   7   6   9   5
(-3.88428486539434e-05,9.05229345028711e-06)   9   6   9   5
(1.31383121640178e-07,1.7582632615064e-08)   3   8   1   5
(1.1799106665151e-09,-4.96334648468126e-09)   7   8   1   5
(-4.51264076013338e-10,2.66138914104967e-09)   9   8   1   5
(3.64766370681159e-07,4.8413228035828e-08)   1   8   3   5
(-1.3149896622626e-07,-1.74889265258487e-08)   5   8   3   5
(-8.40914780586271e-08,-1.10794544886751e-08)   3   8   5   5
(1.00253776079785e-08,-4.25885249493914e-08)   7   8   5   5
(-5.11823476054249e-09,3.29205679223463e-08)   9   8   5   5
(-4.95951864617117e-06,-2.59092041275185e-06)   1   8   7   5
(3.5361726311873e-05,1.83836233886814e-05)   5   8   7   5
(-7.69720659663105e-05,0.000566716726348335)   1   8   9   5
(0.000548442048666627,-0.00403796339427193)   5   8   9   5
(3.81575944404639e-08,-6.56492803903832e-09)   3  10   1   5
(-2.77313583159101e-10,2.6750056433887e-09)   7  10   1   5
(-2.55663522339107e-08,4.6631729923736e-09)   1  10   3   5
(4.03996563110509e-08,-7.10521674954925e-09)   5  10   3   5
(9.14432051918892e-08,-1.59675011349092e-08)   3  10   5   5
(-3.85993004452661e-09,3.29430978506649e-08)   7  10   5   5
(-7.69648204075163e-05,0.000566670654820846)   1  10   7   5
(0.000548442191809626,-0.00403796328028556)   5  10   7   5
(-5.45038866412287e-06,1.27143117545408e-06)   1  10   9   5
(3.88430433408566e-05,-9.05233865715027e-06)   5  10   9   5
(7.4275805467436e-07,-1.01717514674291e-07)   3   2   1   7
(-1.29328627496514e-05,-1.44121216837453e-07)   7   2   1   7
(2.25031040748112e-05,8.5463549797565e-05)   9   2   1   7
(-8.23818353429587e-07,1.11795880315638e-07)   1   2   3   7
(-5.19814226720336e-08,7.05517432425767e-09)   5   2   3   7
(-3.43459315677881e-07,4.53777210812249e-08)   3   2   5   7
(8.25422424142045e-05,1.14763172062326e-06)   7   2   5   7
(-0.000143572364420914,-0.000545271106370408)   9   2   5   7
(-1.04715271827283e-08,-1.62189856239797e-07)   1   2   7   7
(-2.28063207678785e-10,-4.7134787586594e-09)   5   2   7   7
(-2.37425072519551e-08,-8.94253991039965e-08)   1   2   9   7
(-6.83366495121582e-10,-2.57764552844491e-09)   5   2   9   7
(7.06528292901337e-07,-9.36906770921172e-08)   1   4   1   7
(1.39599242044928e-08,-1.73937435069134e-09)   5   4   1   7
(-6.58602963216475e-07,9.03402611413601e-08)   3   4   3   7
(-4.5781131311795e-06,-3.39841019349619e-08)   7   4   3   7
(9.07661979659355e-06,3.13279013200912e-05)   9   4   3   7