 &FCI NORB= 5,NELEC= 6,ORBSYM= 1, 1, 1, 1, 1, 
 ISYM= 0 ,
 TREL=.FALSE.
 &END
    1.03258963279344   1   1   1   1
1.05793657587375e-06   2   1   1   1
 -0.0503507945660867   3   1   1   1
 1.0579365759691e-06   1   2   1   1
    1.05017949380132   2   2   1   1
-5.35907008185898e-08   3   2   1   1
-1.89905296403846e-09   4   2   1   1
1.18393245079288e-09   5   2   1   1
 -0.0503507945660867   1   3   1   1
-5.35907008170944e-08   2   3   1   1
   0.323142511843877   3   3   1   1
-1.89905296403846e-09   2   4   1   1
    0.33444593288221   4   4   1   1
1.18393245079288e-09   2   5   1   1
   0.334445932882979   5   5   1   1
1.05793657587375e-06   1   1   2   1
   0.569909272314088   2   1   2   1
-5.14191272825761e-08   3   1   2   1
-1.50740699819707e-09   4   1   2   1
   0.569909272314089   1   2   2   1
-1.02376451803183e-06   2   2   2   1
 -0.0554739553483827   3   2   2   1
-5.14191272495562e-08   1   3   2   1
 -0.0554739553483832   2   3   2   1
-1.45339224134159e-09   3   3   2   1
-1.50740699819707e-09   1   4   2   1
-1.68914809440713e-09   4   4   2   1
-1.69398577840471e-09   5   5   2   1
 -0.0503507945660867   1   1   3   1
-5.14191272825761e-08   2   1   3   1
 0.00463070314149728   3   1   3   1
-5.14191272911506e-08   1   2   3   1
 -0.0526613968867371   2   2   3   1
 1.7438416513188e-09   3   2   3   1
 0.00463070314149728   1   3   3   1
1.74384165015773e-09   2   3   3   1
-0.000579816230822927   3   3   3   1
-0.000796912293408638   4   4   3   1
-0.000796912293372085   5   5   3   1
-1.50740699819707e-09   2   1   4   1
 0.00121641118149386   4   1   4   1
-1.50740699819707e-09   1   2   4   1
 0.00803089693889988   4   3   4   1
 0.00121641118149386   1   4   4   1
 0.00803089693889988   3   4   4   1
 0.00121641118152714   5   1   5   1
 0.00803089693903278   5   3   5   1
 0.00121641118152714   1   5   5   1
 0.00803089693903279   3   5   5   1
 1.0579365759691e-06   1   1   1   2
   0.569909272314089   2   1   1   2
-5.14191272911506e-08   3   1   1   2
-1.50740699819707e-09   4   1   1   2
    0.56990927231409   1   2   1   2
-1.02376451804068e-06   2   2   1   2
 -0.0554739553483828   3   2   1   2
-5.14191272618237e-08   1   3   1   2
 -0.0554739553483833   2   3   1   2
-1.45339225001765e-09   3   3   1   2
-1.50740699819707e-09   1   4   1   2
-1.68914809999721e-09   4   4   1   2
-1.6939857894853e-09   5   5   1   2
    1.05017949380132   1   1   2   2
-1.02376451803183e-06   2   1   2   2
 -0.0526613968867371   3   1   2   2
-1.02376451804068e-06   1   2   2   2
    1.06939870099284   2   2   2   2
1.51339132837417e-07   3   2   2   2
-1.95256779817014e-09   4   2   2   2
1.21722889278507e-09   5   2   2   2
 -0.0526613968867371   1   3   2   2
1.51339132829826e-07   2   3   2   2
   0.321846108006717   3   3   2   2
-1.95256779817014e-09   2   4   2   2
   0.332574320412697   4   4   2   2
1.21722889278507e-09   2   5   2   2
   0.332574320413442   5   5   2   2
-5.35907008185898e-08   1   1   3   2
 -0.0554739553483827   2   1   3   2
 1.7438416513188e-09   3   1   3   2
 -0.0554739553483828   1   2   3   2
1.51339132837417e-07   2   2   3   2
 0.00682872053970747   3   2   3   2
1.74384164291906e-09   1   3   3   2
 0.00682872053970758   2   3   3   2
-1.89905296403846e-09   1   1   4   2
-1.95256779817014e-09   2   2   4   2
0.000467093379368405   4   2   4   2
-7.48380874543436e-09   4   3   4   2
 0.00046709337936841   2   4   4   2
-7.48380873142417e-09   3   4   4   2
1.18393245079288e-09   1   1   5   2
1.21722889278507e-09   2   2   5   2
0.000467093379367705   5   2   5   2
-7.48466197780126e-09   5   3   5   2
 0.00046709337936771   2   5   5   2
-7.48466196778885e-09   3   5   5   2
 -0.0503507945660867   1   1   1   3
-5.14191272495562e-08   2   1   1   3
 0.00463070314149728   3   1   1   3
-5.14191272618237e-08   1   2   1   3
 -0.0526613968867371   2   2   1   3
1.74384164291906e-09   3   2   1   3
 0.00463070314149728   1   3   1   3
1.74384164173089e-09   2   3   1   3
-0.000579816230822919   3   3   1   3
-0.000796912293408628   4   4   1   3
-0.000796912293372076   5   5   1   3
-5.35907008170944e-08   1   1   2   3
 -0.0554739553483832   2   1   2   3
1.74384165015773e-09   3   1   2   3
 -0.0554739553483833   1   2   2   3
1.51339132829826e-07   2   2   2   3
 0.00682872053970758   3   2   2   3
1.74384164173089e-09   1   3   2   3
  0.0068287205397077   2   3   2   3
   0.323142511843877   1   1   3   3
-1.45339224134159e-09   2   1   3   3
-0.000579816230822927   3   1   3   3
-1.45339225001765e-09   1   2   3   3
   0.321846108006717   2   2   3   3
-0.000579816230822919   1   3   3   3
   0.256227625954667   3   3   3   3
   0.260995044876741   4   4   3   3
   0.260995044877117   5   5   3   3
 0.00803089693889988   4   1   4   3
-7.48380874543436e-09   4   2   4   3
  0.0599161278344208   4   3   4   3
 0.00803089693889987   1   4   4   3
-7.48380874754252e-09   2   4   4   3
  0.0599161278344208   3   4   4   3
 0.00803089693903278   5   1   5   3
-7.48466197780126e-09   5   2   5   3
  0.0599161278345212   5   3   5   3
 0.00803089693903278   1   5   5   3
-7.48466198019043e-09   2   5   5   3
  0.0599161278345213   3   5   5   3
-1.50740699819707e-09   2   1   1   4
 0.00121641118149386   4   1   1   4
-1.50740699819707e-09   1   2   1   4
 0.00803089693889987   4   3   1   4
 0.00121641118149386   1   4   1   4
 0.00803089693889987   3   4   1   4
-1.89905296403846e-09   1   1   2   4
-1.95256779817014e-09   2   2   2   4
 0.00046709337936841   4   2   2   4
-7.48380874754252e-09   4   3   2   4
0.000467093379368415   2   4   2   4
-7.48380873402022e-09   3   4   2   4
 0.00803089693889988   4   1   3   4
-7.48380873142417e-09   4   2   3   4
  0.0599161278344208   4   3   3   4
 0.00803089693889987   1   4   3   4
-7.48380873402022e-09   2   4   3   4
  0.0599161278344208   3   4   3   4
    0.33444593288221   1   1   4   4
-1.68914809440713e-09   2   1   4   4
-0.000796912293408638   3   1   4   4
-1.68914809999721e-09   1   2   4   4
   0.332574320412697   2   2   4   4
-0.000796912293408628   1   3   4   4
   0.260995044876741   3   3   4   4
   0.282354520499558   4   4   4   4
   0.254943582506797   5   5   4   4
  0.0137054689966033   5   4   5   4
  0.0137054689966033   4   5   5   4
 0.00121641118152714   5   1   1   5
 0.00803089693903278   5   3   1   5
 0.00121641118152714   1   5   1   5
 0.00803089693903279   3   5   1   5
1.18393245079288e-09   1   1   2   5
1.21722889278507e-09   2   2   2   5
 0.00046709337936771   5   2   2   5
-7.48466198019043e-09   5   3   2   5
0.000467093379367716   2   5   2   5
-7.48466197028644e-09   3   5   2   5
 0.00803089693903279   5   1   3   5
-7.48466196778885e-09   5   2   3   5
  0.0599161278345213   5   3   3   5
 0.00803089693903279   1   5   3   5
-7.48466197028644e-09   2   5   3   5
  0.0599161278345213   3   5   3   5
  0.0137054689966033   5   4   4   5
  0.0137054689966034   4   5   4   5
   0.334445932882979   1   1   5   5
-1.69398578029467e-09   2   1   5   5
-0.000796912293372086   3   1   5   5
-1.69398578723356e-09   1   2   5   5
   0.332574320413442   2   2   5   5
-0.000796912293372076   1   3   5   5
   0.260995044877117   3   3   5   5
   0.254943582506797   4   4   5   5
   0.282354520500449   5   5   5   5
-6.15558737701929   1   1   0   0
1.93781149123478e-07   2   1   0   0
0.085142601174074   3   1   0   0
1.93781149123478e-07   1   2   0   0
-5.94332919769038   2   2   0   0
-8.81339599433168e-08   3   2   0   0
1.11786593837934e-08   4   2   0   0
-7.00593419571792e-09   5   2   0   0
0.085142601174074   1   3   0   0
-8.81339599433168e-08   2   3   0   0
-1.75972033461521   3   3   0   0
1.11786593837934e-08   2   4   0   0
-1.76063430724556   4   4   0   0
-7.00593419571792e-09   2   5   0   0
-1.76063430724878   5   5   0   0
4.76259489603   0   0   0   0
