 &FCI NORB= 5,NELEC= 6,ORBSYM= 1, 1, 1, 1, 1, 
 ISYM= 0 ,
 TREL=.FALSE.
 &END
    1.03258963279555   1   1   1   1
-1.94911563764236e-06   2   1   1   1
 -0.0503507945764155   3   1   1   1
-1.94911563775732e-06   1   2   1   1
    1.05017949379548   2   2   1   1
 1.0046052100711e-07   3   2   1   1
1.18248962368302e-09   4   2   1   1
 -0.0503507945764155   1   3   1   1
1.00460521015128e-07   2   3   1   1
   0.323142511855518   3   3   1   1
1.18248962368302e-09   2   4   1   1
   0.334445932879155   4   4   1   1
   0.334445932879901   5   5   1   1
-1.94911563764236e-06   1   1   2   1
     0.5699092723081   2   1   2   1
9.60762767085387e-08   3   1   2   1
   0.569909272308099   1   2   2   1
1.88666446532952e-06   2   2   2   1
 -0.0554739553591906   3   2   2   1
9.60762767766311e-08   1   3   2   1
  -0.055473955359191   2   3   2   1
2.42437250090077e-09   3   3   2   1
3.13995576503318e-09   4   4   2   1
3.13509536680245e-09   5   5   2   1
 -0.0503507945764155   1   1   3   1
9.60762767085387e-08   2   1   3   1
 0.00463070314314602   3   1   3   1
9.60762767104468e-08   1   2   3   1
 -0.0526613968971224   2   2   3   1
-3.46728111114041e-09   3   2   3   1
 0.00463070314314602   1   3   3   1
-3.46728111583689e-09   2   3   3   1
-0.000579816231700293   3   3   3   1
-0.000796912294026785   4   4   3   1
-0.000796912293989921   5   5   3   1
 0.00121641118166206   4   1   4   1
1.27902860035476e-09   4   2   4   1
 0.00803089693983135   4   3   4   1
 0.00121641118166206   1   4   4   1
1.27902860018197e-09   2   4   4   1
 0.00803089693983134   3   4   4   1
 0.00121641118169509   5   1   5   1
1.27889044279417e-09   5   2   5   1
 0.00803089693996346   5   3   5   1
 0.00121641118169509   1   5   5   1
1.27889044259408e-09   2   5   5   1
 0.00803089693996346   3   5   5   1
-1.94911563775732e-06   1   1   1   2
   0.569909272308099   2   1   1   2
9.60762767104468e-08   3   1   1   2
   0.569909272308098   1   2   1   2
1.88666446531749e-06   2   2   1   2
 -0.0554739553591905   3   2   1   2
 9.6076276775124e-08   1   3   1   2
 -0.0554739553591908   2   3   1   2
2.42437247894505e-09   3   3   1   2
3.13995573911656e-09   4   4   1   2
3.13509534572948e-09   5   5   1   2
    1.05017949379548   1   1   2   2
1.88666446532952e-06   2   1   2   2
 -0.0526613968971224   3   1   2   2
1.88666446531749e-06   1   2   2   2
     1.0693987009974   2   2   2   2
-2.77104364763168e-07   3   2   2   2
1.21598596323966e-09   4   2   2   2
 -0.0526613968971224   1   3   2   2
-2.77104364740773e-07   2   3   2   2
   0.321846108018137   3   3   2   2
1.21598596323966e-09   2   4   2   2
   0.332574320409713   4   4   2   2
   0.332574320410437   5   5   2   2
 1.0046052100711e-07   1   1   3   2
 -0.0554739553591906   2   1   3   2
-3.46728111114041e-09   3   1   3   2
 -0.0554739553591905   1   2   3   2
-2.77104364763168e-07   2   2   3   2
 0.00682872054181734   3   2   3   2
-3.46728112615257e-09   1   3   3   2
 0.00682872054181743   2   3   3   2
-1.1488550222961e-09   3   3   3   2
-1.4975472381575e-09   4   4   3   2
-1.49766642831273e-09   5   5   3   2
1.18248962368302e-09   1   1   4   2
1.27902860035476e-09   4   1   4   2
1.21598596323966e-09   2   2   4   2
0.000467093379358652   4   2   4   2
1.36514850832531e-08   4   3   4   2
1.27902860079459e-09   1   4   4   2
 0.00046709337935866   2   4   4   2
1.36514850778718e-08   3   4   4   2
1.27889044279417e-09   5   1   5   2
0.000467093379357841   5   2   5   2
1.36506297258973e-08   5   3   5   2
1.27889044141415e-09   1   5   5   2
0.000467093379357844   2   5   5   2
  1.365062971476e-08   3   5   5   2
 -0.0503507945764155   1   1   1   3
9.60762767766311e-08   2   1   1   3
 0.00463070314314602   3   1   1   3
 9.6076276775124e-08   1   2   1   3
 -0.0526613968971224   2   2   1   3
-3.46728112615257e-09   3   2   1   3
 0.00463070314314602   1   3   1   3
-3.46728113087446e-09   2   3   1   3
-0.000579816231700299   3   3   1   3
-0.00079691229402679   4   4   1   3
-0.000796912293989927   5   5   1   3
1.00460521015128e-07   1   1   2   3
  -0.055473955359191   2   1   2   3
-3.46728111583689e-09   3   1   2   3
 -0.0554739553591908   1   2   2   3
-2.77104364740773e-07   2   2   2   3
 0.00682872054181743   3   2   2   3
-3.46728113087446e-09   1   3   2   3
 0.00682872054181751   2   3   2   3
-1.14885501925002e-09   3   3   2   3
-1.49754723764652e-09   4   4   2   3
-1.49766642795203e-09   5   5   2   3
   0.323142511855518   1   1   3   3
2.42437250090077e-09   2   1   3   3
-0.000579816231700293   3   1   3   3
2.42437247894505e-09   1   2   3   3
   0.321846108018137   2   2   3   3
-1.1488550222961e-09   3   2   3   3
-0.000579816231700299   1   3   3   3
-1.14885501925002e-09   2   3   3   3
   0.256227625965231   3   3   3   3
   0.260995044881902   4   4   3   3
   0.260995044882271   5   5   3   3
 0.00803089693983135   4   1   4   3
1.36514850832531e-08   4   2   4   3
    0.05991612783814   4   3   4   3
 0.00803089693983134   1   4   4   3
1.36514850827313e-08   2   4   4   3
    0.05991612783814   3   4   4   3
 0.00803089693996346   5   1   5   3
1.36506297258973e-08   5   2   5   3
  0.0599161278382427   5   3   5   3
 0.00803089693996346   1   5   5   3
1.36506297258893e-08   2   5   5   3
  0.0599161278382427   3   5   5   3
 0.00121641118166206   4   1   1   4
1.27902860079459e-09   4   2   1   4
 0.00803089693983134   4   3   1   4
 0.00121641118166206   1   4   1   4
1.27902860063535e-09   2   4   1   4
 0.00803089693983134   3   4   1   4
1.18248962368302e-09   1   1   2   4
1.27902860018197e-09   4   1   2   4
1.21598596323966e-09   2   2   2   4
 0.00046709337935866   4   2   2   4
1.36514850827313e-08   4   3   2   4
1.27902860063535e-09   1   4   2   4
0.000467093379358667   2   4   2   4
1.36514850772958e-08   3   4   2   4
 0.00803089693983134   4   1   3   4
1.36514850778718e-08   4   2   3   4
    0.05991612783814   4   3   3   4
 0.00803089693983134   1   4   3   4
1.36514850772958e-08   2   4   3   4
    0.05991612783814   3   4   3   4
   0.334445932879155   1   1   4   4
3.13995576503318e-09   2   1   4   4
-0.000796912294026785   3   1   4   4
3.13995573911656e-09   1   2   4   4
   0.332574320409713   2   2   4   4
-1.4975472381575e-09   3   2   4   4
-0.00079691229402679   1   3   4   4
-1.49754723764652e-09   2   3   4   4
   0.260995044881902   3   3   4   4
   0.282354520496487   4   4   4   4
    0.25494358250381   5   5   4   4
  0.0137054689965557   5   4   5   4
  0.0137054689965557   4   5   5   4
 0.00121641118169509   5   1   1   5
1.27889044141415e-09   5   2   1   5
 0.00803089693996346   5   3   1   5
 0.00121641118169509   1   5   1   5
1.27889044115985e-09   2   5   1   5
 0.00803089693996346   3   5   1   5
1.27889044259408e-09   5   1   2   5
0.000467093379357844   5   2   2   5
1.36506297258893e-08   5   3   2   5
1.27889044115985e-09   1   5   2   5
0.000467093379357846   2   5   2   5
1.36506297143184e-08   3   5   2   5
 0.00803089693996346   5   1   3   5
  1.365062971476e-08   5   2   3   5
  0.0599161278382427   5   3   3   5
 0.00803089693996346   1   5   3   5
1.36506297143184e-08   2   5   3   5
  0.0599161278382427   3   5   3   5
  0.0137054689965557   5   4   4   5
  0.0137054689965557   4   5   4   5
   0.334445932879901   1   1   5   5
3.13509537219565e-09   2   1   5   5
-0.000796912293989922   3   1   5   5
3.13509534595795e-09   1   2   5   5
   0.332574320410437   2   2   5   5
-1.49766642800553e-09   3   2   5   5
-0.000796912293989927   1   3   5   5
-1.49766642799283e-09   2   3   5   5
   0.260995044882271   3   3   5   5
    0.25494358250381   4   4   5   5
   0.282354520497357   5   5   5   5
-6.15558737701681   1   1   0   0
-3.57243597112662e-07   2   1   0   0
0.0851426012269587   3   1   0   0
-3.57243597112662e-07   1   2   0   0
-5.94332919769087   2   2   0   0
1.52469633890679e-07   3   2   0   0
-6.89721649151327e-09   4   2   0   0
3.60375482583331e-09   5   2   0   0
0.0851426012269587   1   3   0   0
1.52469633890679e-07   2   3   0   0
-1.75972033465979   3   3   0   0
-6.89721649151327e-09   2   4   0   0
-1.76063430723278   4   4   0   0
3.60375482583331e-09   2   5   0   0
-1.76063430723591   5   5   0   0
4.76259489603   0   0   0   0
