 &FCI NORB= 5,NELEC= 6,ORBSYM= 1, 1, 1, 1, 1, 
 ISYM= 0 ,
 TREL=.FALSE.
 &END
    1.03258963279561   1   1   1   1
-1.94911739604786e-06   2   1   1   1
 -0.0503507945764255   3   1   1   1
-1.94911739598548e-06   1   2   1   1
    1.05017949379551   2   2   1   1
 1.0046059173128e-07   3   2   1   1
1.19196888849142e-09   4   2   1   1
 -0.0503507945764255   1   3   1   1
1.00460591783678e-07   2   3   1   1
   0.323142511855718   3   3   1   1
1.19196888849142e-09   2   4   1   1
   0.334445932879434   4   4   1   1
   0.334445932880208   5   5   1   1
-1.94911739604786e-06   1   1   2   1
    0.56990927230815   2   1   2   1
9.60763469025939e-08   3   1   2   1
   0.569909272308149   1   2   2   1
1.88666616786839e-06   2   2   2   1
 -0.0554739553592162   3   2   2   1
9.60763468522349e-08   1   3   2   1
  -0.055473955359216   2   3   2   1
2.42442999563872e-09   3   3   2   1
3.14000856155117e-09   4   4   2   1
3.13513774448961e-09   5   5   2   1
 -0.0503507945764255   1   1   3   1
9.60763469025939e-08   2   1   3   1
 0.00463070314314893   3   1   3   1
9.60763469022545e-08   1   2   3   1
 -0.0526613968971307   2   2   3   1
 -3.467280085441e-09   3   2   3   1
 0.00463070314314893   1   3   3   1
-3.46728009017548e-09   2   3   3   1
-0.00057981623170118   3   3   3   1
-0.000796912294029449   4   4   3   1
-0.000796912293992911   5   5   3   1
  0.0012164111816629   4   1   4   1
 1.2790304663581e-09   4   2   4   1
 0.00803089693983514   4   3   4   1
  0.0012164111816629   1   4   4   1
1.27903046714608e-09   2   4   4   1
 0.00803089693983514   3   4   4   1
 0.00121641118169625   5   1   5   1
 1.2788920125927e-09   5   2   5   1
  0.0080308969399684   5   3   5   1
 0.00121641118169625   1   5   5   1
1.27889201238897e-09   2   5   5   1
  0.0080308969399684   3   5   5   1
-1.94911739598548e-06   1   1   1   2
   0.569909272308149   2   1   1   2
9.60763469022545e-08   3   1   1   2
   0.569909272308147   1   2   1   2
1.88666616796484e-06   2   2   1   2
 -0.0554739553592159   3   2   1   2
9.60763468518684e-08   1   3   1   2
 -0.0554739553592157   2   3   1   2
2.42442988816488e-09   3   3   1   2
  3.140008470956e-09   4   4   1   2
 3.1351376522689e-09   5   5   1   2
    1.05017949379551   1   1   2   2
1.88666616786839e-06   2   1   2   2
 -0.0526613968971307   3   1   2   2
1.88666616796484e-06   1   2   2   2
    1.06939870099741   2   2   2   2
-2.7710463561939e-07   3   2   2   2
1.22573272377366e-09   4   2   2   2
 -0.0526613968971307   1   3   2   2
-2.77104635575967e-07   2   3   2   2
   0.321846108018334   3   3   2   2
1.22573272377366e-09   2   4   2   2
   0.332574320409991   4   4   2   2
   0.332574320410742   5   5   2   2
 1.0046059173128e-07   1   1   3   2
 -0.0554739553592162   2   1   3   2
 -3.467280085441e-09   3   1   3   2
 -0.0554739553592159   1   2   3   2
-2.7710463561939e-07   2   2   3   2
 0.00682872054182558   3   2   3   2
-3.46728007507397e-09   1   3   3   2
 0.00682872054182553   2   3   3   2
-1.14885586798641e-09   3   3   3   2
-1.49754829631899e-09   4   4   3   2
-1.49766769115055e-09   5   5   3   2
1.19196888849142e-09   1   1   4   2
 1.2790304663581e-09   4   1   4   2
1.22573272377366e-09   2   2   4   2
0.000467093379360358   4   2   4   2
1.36515028446908e-08   4   3   4   2
1.27903046629309e-09   1   4   4   2
0.000467093379360352   2   4   4   2
1.36515028246821e-08   3   4   4   2
 1.2788920125927e-09   5   1   5   2
0.000467093379359603   5   2   5   2
1.36506457690613e-08   5   3   5   2
1.27889201116469e-09   1   5   5   2
0.000467093379359606   2   5   5   2
1.36506457607371e-08   3   5   5   2
 -0.0503507945764255   1   1   1   3
9.60763468522349e-08   2   1   1   3
 0.00463070314314893   3   1   1   3
9.60763468518684e-08   1   2   1   3
 -0.0526613968971307   2   2   1   3
-3.46728007507397e-09   3   2   1   3
 0.00463070314314893   1   3   1   3
-3.46728007941543e-09   2   3   1   3
-0.000579816231701184   3   3   1   3
-0.000796912294029452   4   4   1   3
-0.000796912293992917   5   5   1   3
1.00460591783678e-07   1   1   2   3
  -0.055473955359216   2   1   2   3
-3.46728009017548e-09   3   1   2   3
 -0.0554739553592157   1   2   2   3
-2.77104635575967e-07   2   2   2   3
 0.00682872054182553   3   2   2   3
-3.46728007941543e-09   1   3   2   3
 0.00682872054182549   2   3   2   3
-1.14885586822236e-09   3   3   2   3
-1.49754829642903e-09   4   4   2   3
-1.49766769023121e-09   5   5   2   3
   0.323142511855718   1   1   3   3
2.42442999563872e-09   2   1   3   3
-0.00057981623170118   3   1   3   3
2.42442988816488e-09   1   2   3   3
   0.321846108018334   2   2   3   3
-1.14885586798641e-09   3   2   3   3
-0.000579816231701184   1   3   3   3
-1.14885586822236e-09   2   3   3   3
   0.256227625965389   3   3   3   3
   0.260995044882104   4   4   3   3
   0.260995044882482   5   5   3   3
 0.00803089693983514   4   1   4   3
1.36515028446908e-08   4   2   4   3
  0.0599161278381454   4   3   4   3
 0.00803089693983515   1   4   4   3
1.36515028499138e-08   2   4   4   3
  0.0599161278381454   3   4   4   3
  0.0080308969399684   5   1   5   3
1.36506457690613e-08   5   2   5   3
  0.0599161278382472   5   3   5   3
 0.00803089693996841   1   5   5   3
1.36506457684582e-08   2   5   5   3
  0.0599161278382472   3   5   5   3
  0.0012164111816629   4   1   1   4
1.27903046629309e-09   4   2   1   4
 0.00803089693983515   4   3   1   4
  0.0012164111816629   1   4   1   4
1.27903046709462e-09   2   4   1   4
 0.00803089693983514   3   4   1   4
1.19196888849142e-09   1   1   2   4
1.27903046714608e-09   4   1   2   4
1.22573272377366e-09   2   2   2   4
0.000467093379360352   4   2   2   4
1.36515028499138e-08   4   3   2   4
1.27903046709462e-09   1   4   2   4
0.000467093379360347   2   4   2   4
1.36515028295798e-08   3   4   2   4
 0.00803089693983514   4   1   3   4
1.36515028246821e-08   4   2   3   4
  0.0599161278381454   4   3   3   4
 0.00803089693983514   1   4   3   4
1.36515028295798e-08   2   4   3   4
  0.0599161278381454   3   4   3   4
   0.334445932879434   1   1   4   4
3.14000856155117e-09   2   1   4   4
-0.000796912294029449   3   1   4   4
  3.140008470956e-09   1   2   4   4
   0.332574320409991   2   2   4   4
-1.49754829631899e-09   3   2   4   4
-0.000796912294029452   1   3   4   4
-1.49754829642903e-09   2   3   4   4
   0.260995044882104   3   3   4   4
   0.282354520496707   4   4   4   4
   0.254943582504067   5   5   4   4
  0.0137054689965441   5   4   5   4
  0.0137054689965441   4   5   5   4
 0.00121641118169625   5   1   1   5
1.27889201116469e-09   5   2   1   5
 0.00803089693996841   5   3   1   5
 0.00121641118169625   1   5   1   5
1.27889201109649e-09   2   5   1   5
  0.0080308969399684   3   5   1   5
1.27889201238897e-09   5   1   2   5
0.000467093379359606   5   2   2   5
1.36506457684582e-08   5   3   2   5
1.27889201109649e-09   1   5   2   5
 0.00046709337935961   2   5   2   5
1.36506457601882e-08   3   5   2   5
  0.0080308969399684   5   1   3   5
1.36506457607371e-08   5   2   3   5
  0.0599161278382472   5   3   3   5
  0.0080308969399684   1   5   3   5
1.36506457601882e-08   2   5   3   5
  0.0599161278382471   3   5   3   5
  0.0137054689965441   5   4   4   5
  0.0137054689965441   4   5   4   5
   0.334445932880208   1   1   5   5
3.13513774474542e-09   2   1   5   5
-0.000796912293992912   3   1   5   5
 3.1351376545398e-09   1   2   5   5
   0.332574320410742   2   2   5   5
-1.49766769093624e-09   3   2   5   5
-0.000796912293992917   1   3   5   5
-1.49766768986516e-09   2   3   5   5
   0.260995044882482   3   3   5   5
   0.254943582504067   4   4   5   5
   0.282354520497602   5   5   5   5
-6.15558737701685   1   1   0   0
-3.57243922904135e-07   2   1   0   0
0.085142601226708   3   1   0   0
-3.57243922904135e-07   1   2   0   0
-5.94332919769088   2   2   0   0
1.52469800450423e-07   3   2   0   0
-6.9529138698833e-09   4   2   0   0
3.60173900421866e-09   5   2   0   0
0.085142601226708   1   3   0   0
1.52469800450423e-07   2   3   0   0
-1.75972033466066   3   3   0   0
-6.9529138698833e-09   2   4   0   0
-1.76063430723393   4   4   0   0
3.60173900421866e-09   2   5   0   0
-1.76063430723719   5   5   0   0
4.76259489603   0   0   0   0
